21
Properties=species:S:1:pos:R:3:forces:R:3 energy=-406734.2917564236
C	2.28982036	-0.3403658	0.12994054	-5.5951329743899105	-40.59822752835331	-4.502710457575886
C	0.88992661	1.9221454	-0.40359677	24.380872244151572	28.15594571954882	15.081883329142242
C	3.00978115	0.84813104	0.01599348	37.14081443977391	-16.3521361838121	9.929440183249838
C	2.3618851	2.0652358	-0.2000186	-57.68772918264834	-1.432622227270659	-18.776594330964322
C	-3.5080555	1.06517375	-0.54476847	50.7627470459568	10.308768869494454	-4.62226337431855
C	0.93183574	-0.52499391	-0.00403706	-40.24915573311238	84.45139187882798	16.5903888076875
C	0.1875493	0.75075909	-0.15508365	11.541069526089492	-35.58562821370908	-35.31522492632982
O	-0.89259063	-2.08045733	0.08229507	-30.49856062919106	10.509801590325015	13.099758471160262
O	-2.2031941	0.29815268	1.39762886	4.847653439202231	9.364161257515137	-17.091817373475347
O	1.15148186	-2.84641245	-0.05074385	-0.30739816608705556	-50.086835568006116	21.273085637322488
C	0.2915951	-1.82495951	0.09850816	-6.477908687952199	-2.960275981399403	-31.90083104948015
C	-2.27876059	0.66430299	0.2469042	8.17461988533791	-11.509753571134983	14.616803758872496
O	-1.136613	0.84362338	-0.6359158	-13.35353041115006	-8.90768366821265	28.493504632629996
H	0.50970737	-3.62540543	0.12854564	29.992652648650566	23.282647035808562	-12.543038332598018
H	2.71387963	-1.34469101	0.24959388	23.89886679111682	12.608507909288006	2.7617885657338963
H	0.16477433	2.72228681	-0.75507314	31.94637572412259	-8.462873602102702	11.731182145455167
H	4.11244756	0.58226107	0.11769731	-24.02599212562914	32.38837094757935	-3.3383080084133674
H	2.81446895	3.08990496	-0.3309035	-4.755343329069114	-29.0872524681884	3.3413579858686275
H	-3.71755282	2.0990422	-0.26454464	-6.917737810941277	3.859861395032865	-2.084312957260501
H	-3.09583123	1.01622304	-1.54311827	-11.748523151814297	8.390916973866382	-19.318923555615196
H	-4.35109441	0.43052746	-0.46870151	-21.068659542417148	-18.337084565097296	12.574830848908801
21
Properties=species:S:1:pos:R:3:forces:R:3 energy=-406727.4933845405
C	2.30685047	-0.39832537	0.12649175	41.83510224880542	47.00052293122744	-9.582588348172646
C	0.89253676	1.87094053	-0.38824525	54.354729231179874	20.527228307188985	28.13019848644096
C	3.05092383	0.88873759	0.04171063	-45.79485150822098	-30.298063166709472	3.8667870815637495
C	2.37549256	2.09725844	-0.20262392	-92.30079719855675	-72.28350307680726	-17.305537859716186
C	-3.47353996	1.0546994	-0.60180316	2.434445463570256	3.5126828764126308	12.774921301655414
C	0.93108209	-0.46838631	-0.02469644	-14.159632280209665	-21.538989703425464	21.23225043080279
C	0.19497769	0.71491532	-0.13892361	-10.283368747998793	9.156058740292078	-41.15330949602248
O	-0.9133282	-2.06675588	0.0831309	-87.96846261427058	13.188817678817768	8.08361783672639
O	-2.19111792	0.28621448	1.43564786	-0.2156500696258756	19.130760454058763	-24.32308910000444
O	1.13127954	-2.83583045	-0.04877723	29.02303622774508	-30.284109686253572	14.417105965333619
C	0.22353985	-1.77313451	0.04588984	68.33986318795384	-50.672297166311935	-12.21276808446565
C	-2.27241817	0.67467833	0.28866467	-1.0062761490124144	-26.090183950373127	-12.226938485954504
O	-1.17597201	0.80814303	-0.63325736	22.74817676666649	-10.025216376758555	42.70814815271529
H	0.79869279	-3.77362411	0.22137036	-2.6329425774793322	57.55424350661522	-15.054587987897003
H	2.89924338	-1.32563912	0.16925327	-7.3602759491102905	8.592588564757527	5.061678331144371
H	0.17168331	2.59281353	-0.67672474	-1.1153429306961256	37.67234247973896	-9.912195094122652
H	4.10647171	0.80451083	0.18006929	19.611103950731295	4.2759440801394035	-0.7351286731032146
H	2.72953784	3.03833068	-0.55332016	18.345489319448653	16.400390353874773	4.898526965504929
H	-3.54896854	2.15561814	-0.39358708	-10.49932834877118	-13.952949481204818	-9.472138986262244
H	-3.10746923	0.90185963	-1.63715929	-12.125131383042781	4.537279489613317	7.407856538025913
H	-4.45736132	0.51507361	-0.42118635	28.770113360893856	13.596453145107262	3.3971910258074587
21
Properties=species:S:1:pos:R:3:forces:R:3 energy=-406727.67777488456
C	2.31970002	-0.40648448	0.12276612	47.69733496517394	55.23114076605074	-7.108596933590165
C	0.9031217	1.86503015	-0.37815649	60.25552224757067	2.803998452481156	30.904743173678547
C	3.05357057	0.89329634	0.0509879	-9.93326400510603	-26.573588474643138	6.042967692961165
C	2.35757878	2.09543511	-0.20942059	-81.25273090661398	-84.60287288677831	-10.483488052723846
C	-3.45863666	1.05010452	-0.61780026	2.5586178166735816	21.858740762393765	24.043941311636566
C	0.92446927	-0.44938003	-0.02554924	9.351491712104417	-59.55236230188846	19.508547332185362
C	0.19587696	0.70254129	-0.14459829	-19.89119844534967	35.15478690833701	-40.03564121553494
O	-0.93716418	-2.06033703	0.08524194	-42.40812131494803	20.64068326443107	3.461589335797137
O	-2.18720336	0.28619229	1.44213557	-2.4283070802612414	16.832502709785896	-14.617295487982306
O	1.13383803	-2.83119423	-0.04701636	24.458726976780667	-31.147506087694598	13.867414402373047
C	0.21980349	-1.76806142	0.02503374	31.347146780605588	-59.44339373337547	-1.8979384721744896
C	-2.27025992	0.67110898	0.30079712	-1.9643864671002442	-20.45101125958892	-29.809504720433633
O	-1.18519966	0.79518262	-0.6243457	33.72190423330274	-7.916963110572002	40.40295762761278
H	0.83400056	-3.78737193	0.2382349	-4.8042219262387835	65.42043602987494	-17.54221429409612
H	2.96995503	-1.31034939	0.16137223	-20.220757069780035	11.85599387704378	4.488300069085507
H	0.23715691	2.60006497	-0.6522545	-24.449809487211816	55.82493072643591	-18.04384085356192
H	4.16959039	0.90354146	0.19761822	-23.848939016824477	-4.089152940876914	-5.905954771443141
H	2.73383344	3.00388316	-0.59362452	18.8935121725834	25.66419807461591	2.7408946220543884
H	-3.53376265	2.17095672	-0.45525008	-6.771133641654061	-21.121635281420964	-6.957559651177406
H	-3.15361205	0.88549258	-1.65951607	-4.13836596715784	-0.5070821021402254	3.5915028363739556
H	-4.43127512	0.5661835	-0.38679121	13.826978423451521	4.1181566075286415	3.34917604895948
21
Properties=species:S:1:pos:R:3:forces:R:3 energy=-406738.8924535248
C	2.40826496	-0.34857219	0.10231184	-31.090797645381436	-16.00016753514219	8.971253389525414
C	0.93928064	1.90082472	-0.32919415	-86.44711498709857	6.666890625486366	-14.893260666520158
C	3.04233632	0.88256621	0.08806636	-44.850332630467356	5.979744315626379	-18.848210975669943
C	2.25021578	2.01070998	-0.25301576	73.99547312510501	-36.0907622912133	19.318757295673702
C	-3.39628289	1.05227026	-0.64363125	-46.07427081504629	-3.3284543970263107	25.2280982694598
C	0.92872417	-0.46982709	-0.00971453	9.269256635972354	-1.275551672294604	-12.766252353804365
C	0.17463542	0.70917386	-0.21272177	27.834721458823168	-7.163504371043329	5.247809887542075
O	-1.02542751	-2.01313498	0.09017826	66.19800033578599	1.1816701662124351	-15.233088932242103
O	-2.17831495	0.3021478	1.45700395	-15.388652970212588	13.303758840259148	-17.42890271291954
O	1.17360125	-2.79271482	-0.04219111	-51.63851252113804	-60.25004973123964	19.675257573164117
C	0.20600675	-1.81936353	-0.04303744	-18.3833559471947	18.46143941782339	28.54640448873633
C	-2.26141952	0.6377396	0.2965479	9.814786098084369	0.05606044580564902	-9.555261323396977
O	-1.17665707	0.74100926	-0.55647296	38.68699715690883	9.240784594303841	-7.909992417356417
H	0.64178174	-3.65801832	0.25630859	32.68035198837143	48.21339038285504	-23.32800417837401
H	3.00118269	-1.27093525	0.211508	-8.859783270804437	6.39241576022407	1.9313291893191564
H	0.46693728	2.81448054	-0.61759586	-24.291002821669668	12.391506717523013	-4.6181048372382945
H	4.07068687	1.09395462	0.18625433	33.50284722385941	-11.949900208841063	3.948030926095053
H	2.77674492	2.89635496	-0.52866375	3.3753872120496573	22.959391028347326	1.8111508667652265
H	-3.51929643	2.15571447	-0.71148967	9.119708493510018	-6.809344147984032	7.9094817004269204
H	-3.31122103	0.7273005	-1.70141323	6.2348767079183	-6.287838595328303	15.409522269347661
H	-4.36230204	0.68873686	-0.18284104	16.311417172624946	4.308520655646019	-13.416017458533496
21
Properties=species:S:1:pos:R:3:forces:R:3 energy=-406738.6331624559
C	2.4243033	-0.32289628	0.098895	-62.31087228572791	-82.00545009663382	14.379190354217783
C	0.91408943	1.92716677	-0.32346214	-40.200417857109066	-39.60347838105979	-6.847852436975235
C	3.02313136	0.87840616	0.09194656	35.86681590988215	26.81185233535795	-14.499576389414221
C	2.24693649	1.97525301	-0.26218578	39.50901375361104	-7.759163313785298	20.973043485880968
C	-3.39155133	1.05179438	-0.63877884	-30.33886740888427	5.1537529402751	20.773280502051804
C	0.93830054	-0.4893194	-0.00736269	-1.9630727050563195	33.725426798017295	-20.773103074071177
C	0.17337799	0.71687306	-0.23395205	42.993630230398146	-23.194871804699257	18.92243132419359
O	-1.02883656	-1.99761943	0.08720286	50.511398475235644	-11.53428568720217	-15.115402572462829
O	-2.18028758	0.31076982	1.4568282	-16.47647429235819	12.24410508117389	-23.743793699082147
O	1.17860668	-2.78615074	-0.03917012	-37.519649736092994	-20.75185329997346	2.403552695689798
C	0.19221777	-1.8356641	-0.04969872	11.952877834004564	55.806195804935214	27.407100358521017
C	-2.25611863	0.6276852	0.28486433	11.372323217964317	3.3850182746149704	10.44515181149921
O	-1.15989287	0.72876925	-0.53710038	21.170059597726816	10.798824411994918	-23.14092003889287
H	0.61521152	-3.54897999	0.2090668	11.28190839768867	-17.859434117848057	-3.668796777759952
H	2.96993856	-1.28385563	0.2431974	-4.879156727624054	17.35236647866433	-0.5594929731808074
H	0.49850503	2.82973537	-0.59823889	-40.659917089251685	42.44991533015152	-12.551401689533034
H	4.11790995	1.06573911	0.18880919	-15.365853058648156	-14.409085301036509	-0.0138922712093385
H	2.75706778	2.88176143	-0.45175071	9.69846023160928	28.898523378331266	-2.579336576358698
H	-3.48613842	2.17160853	-0.74399658	9.484954231065847	-19.33729641545246	6.6102781257573495
H	-3.3197211	0.64237807	-1.65911943	5.32655395456431	-1.877437527337751	7.7462527264337595
H	-4.32576679	0.70862902	-0.16016202	0.5462853270017447	1.7063751115122185	-6.166712885304742
21
Properties=species:S:1:pos:R:3:forces:R:3 energy=-406743.5263166233
C	2.30072009	-0.36679225	0.1447695	44.34475148853173	51.68684161765591	-4.970255091844425
C	0.85675777	1.94454234	-0.31339553	13.877371600162407	30.92792610578236	-11.516551475787805
C	2.96653557	0.8749951	0.02897825	5.574419682945425	-37.779767623544664	13.713531936468152
C	2.27485142	2.0334717	-0.07690923	-18.357171970660545	36.96037916736122	-27.754586599769414
C	-3.42577563	0.89130805	-0.55135906	9.337557040632245	-18.19403261690569	31.91700931301571
C	0.96941184	-0.49913459	0.01794561	-51.303431369386644	33.50522588056137	-14.80418281472326
C	0.20210733	0.69591044	-0.26941055	1.321298604561557	15.021969832671784	-3.2045250496418856
O	-0.9422753	-1.89063781	-0.06795219	12.120485878517973	-2.70802743228609	-1.5411298636613615
O	-2.14245691	0.48157636	1.5038013	14.502151371648047	1.417027334758158	-39.281075413838764
O	1.08509959	-2.8724044	-0.00927164	-12.960711439940257	-20.188705734750695	0.6319933756971591
C	0.28082481	-1.76010802	-0.03182675	-37.4037724659372	-42.3508449154354	8.122273255329109
C	-2.20186635	0.61716291	0.29349079	0.5102430838179794	17.463744571233608	1.0736599100309325
O	-1.15081844	0.66032489	-0.6872081	25.382768016325787	3.6817096842412877	34.48569310124052
H	0.43925848	-3.65842853	0.00566973	21.197778954522338	30.31436464450106	-1.2677006812216627
H	3.01132721	-1.1078022	0.2894875	15.087588025417483	-52.509764380855536	6.175623962913021
H	0.42568008	2.93281185	-0.72456765	-2.312818895658999	-40.91458695319599	21.072032282056202
H	4.04441905	0.78738774	0.00435044	8.599054703946873	10.525423172536506	5.331311752032847
H	2.86113711	3.00171495	-0.20598624	-24.47323315342985	-22.65039955647713	5.366502390992189
H	-3.20871772	1.61112169	-1.32189941	-0.9212009586142044	2.033268949144158	-13.21195547856994
H	-3.70191553	-0.10418244	-0.88354954	-7.823109477478551	-5.123702885236424	-17.590119945170507
H	-4.18848011	1.21763665	0.12909428	-16.300018719923735	8.881951138240375	7.252451134453143
21
Properties=species:S:1:pos:R:3:forces:R:3 energy=-406746.489489711
C	2.30485589	-0.35371869	0.13966985	37.42047043042793	35.02737450554356	-1.8501674546830695
C	0.85370814	1.94262513	-0.30898792	17.40221508447351	34.514081236975166	-14.344823980871062
C	2.98590746	0.86449833	0.03718366	-29.361297921838787	-3.87300906895634	7.154393862463365
C	2.26808003	2.03689883	-0.07890796	-2.692917292954682	14.847243928136194	-21.08582450645112
C	-3.43120845	0.88848161	-0.54500833	1.2502620933004125	-22.947789307479578	36.51506660526222
C	0.96495705	-0.498324	0.02585536	-45.02038195511177	35.76469177711736	-18.068774623891912
C	0.20344569	0.70108896	-0.27232547	-3.267166932710536	1.0839639918834927	0.9990971343738972
O	-0.93912227	-1.89084195	-0.07097764	-6.459355425010303	-4.938748221256636	-2.8307008746515057
O	-2.13350836	0.48628196	1.50094757	12.00855892919073	1.0709678849194	-40.63705568032201
O	1.08060702	-2.87846829	-0.00879801	16.318642591108468	13.561161236863558	-0.15303447252700741
C	0.27183516	-1.76597428	-0.03609418	-16.542565447412915	-35.00399057819358	11.179668154202924
C	-2.20637168	0.61803286	0.28969287	5.407369221508355	19.555494966743094	7.482397523785124
O	-1.15249693	0.66233553	-0.68741374	24.53828555429274	4.6599357296237995	31.719250455431876
H	0.48958815	-3.64959334	0.02033858	-7.166161491252213	-2.003362051399227	-1.01405616350544
H	3.01365067	-1.098288	0.28140175	13.8357993864131	-53.89457092053895	5.7929269231180704
H	0.40980432	2.91232878	-0.73427141	-1.4144845515391848	-36.56131242513126	21.59087715231855
H	4.04467562	0.78954577	-0.00588642	24.30514329769268	8.589837602249428	5.821933554727803
H	2.85872617	2.99729448	-0.18336499	-24.014169951087496	-18.303729747530525	2.8666475708867485
H	-3.22141158	1.56581071	-1.33827632	2.570479144540727	10.720030554517141	-19.853476975577582
H	-3.69360835	-0.11020754	-0.87905764	-10.085393115563175	-6.330080755060063	-14.719612313056501
H	-4.21326409	1.23940631	0.11598367	-9.033331648467337	4.461809660974131	3.435268108966607
21
Properties=species:S:1:pos:R:3:forces:R:3 energy=-406746.42428089154
C	2.18584583	-0.38953285	0.20190576	-10.202117368824617	-10.848236916967693	-24.924909137329887
C	0.85142976	2.01681296	-0.23184436	-19.677401197660675	12.909148413726612	3.1219750764427223
C	2.9111902	0.79261661	0.18968468	-20.501854528363765	-23.337007676424275	8.02921021054164
C	2.20994297	1.96129121	0.04728073	4.556789621041858	50.381086663157255	-10.977411593851592
C	-3.42254895	0.49232084	-0.28980838	-14.665392953512262	25.64999506903128	6.112598156123277
C	0.78659002	-0.44093644	-0.13737913	64.63929307810893	5.327151478129863	6.326201429041989
C	0.16005605	0.80415024	-0.42274924	43.88364722267601	-9.937133858112425	28.816474014672124
O	-1.01181592	-2.03849304	-0.24337356	38.531416254556774	6.756786997755448	-3.600944263076432
O	-1.84263255	0.81110323	1.41476398	14.191052727887861	10.203140270131817	-15.716833955830225
O	1.16025935	-2.89463524	0.09556928	-15.368452852143525	58.99008295974332	-13.29692146434303
C	0.19545267	-1.78089706	-0.16449059	-34.5098656237565	-54.59470860443548	19.76148390758461
C	-2.07093952	0.74902885	0.2248447	7.677866514467005	-32.607370422396514	11.18453831924222
O	-1.10230606	0.76953971	-0.80237502	-63.17766954151602	14.426162535135807	-6.588429089956799
H	0.6572568	-3.708304	0.24665851	-14.906687074279942	-0.17742790490887056	-2.8283937326141526
H	2.73604367	-1.33070865	0.26260281	-5.509025465400302	0.5971913531091348	6.932989350581314
H	0.3406554	3.04645416	-0.2153681	11.065444951358234	-39.69207629226537	-9.192564328186744
H	3.96109647	0.73262202	0.3454035	22.2428228533313	5.682246337009846	3.4217436793923084
H	2.70758077	2.94699578	0.04035329	2.842694250991469	-9.587626524747401	6.530024070701466
H	-3.59615894	0.32290255	-1.32493033	10.221268034456074	-0.1814800648657149	-28.671419446737183
H	-3.87699191	-0.33705165	0.2274132	-3.9607797217544527	-5.95714140507141	15.24721102831632
H	-3.90162446	1.44188985	-0.01501136	-17.37304918166365	-4.002782406735657	0.3133777692859415
21
Properties=species:S:1:pos:R:3:forces:R:3 energy=-406742.1561609744
C	2.15921588	-0.37918028	0.16760948	56.893146088596374	-42.42123916538116	11.865066945890064
C	0.87810274	2.01153935	-0.28617002	-44.2874520641825	22.469387805990607	17.5937194969989
C	2.91378554	0.74497295	0.23360299	-33.131286046635125	43.06007683805706	-3.7361051827323712
C	2.20573865	1.95381679	0.08867398	47.906422265178804	20.27115559341585	14.646382998402666
C	-3.42814177	0.44074912	-0.31082209	-4.852527061871641	9.772169749215868	48.4549816691032
C	0.84148441	-0.41076563	-0.1361004	-55.30381918973488	-37.160088668567795	-20.03763780467488
C	0.1916754	0.79769211	-0.46045357	-24.546642952297766	-8.412123327948644	4.554558337200432
O	-1.01130662	-2.04285061	-0.30552096	4.608251460299061	-11.351458256097446	10.500602432908078
O	-1.73597803	0.89426369	1.42345958	0.7442081639678979	-5.503742043371258	-5.231602342411125
O	1.13345077	-2.80530176	0.07051841	18.389512718135503	64.12707038214582	-13.857126020543378
C	0.16789137	-1.83641993	-0.1110513	19.062840913211915	59.52532717706223	-21.966454876051003
C	-2.04831398	0.70363645	0.2677466	-31.756759669840843	15.895326664384424	-14.151514634711091
O	-1.2324021	0.75043885	-0.81463638	72.44193539985984	8.9810560012319	4.494461434080872
H	0.60778693	-3.50016261	0.35474837	-39.36939545353128	-77.68215957579963	20.391922872542683
H	2.702479	-1.29929369	0.40350464	-9.636227311618791	-2.6814491342916074	-1.8813313361903694
H	0.26181603	2.97297606	-0.1068302	23.26777286582455	-32.473963178547386	-19.516731453036943
H	3.92473669	0.73388739	0.55769653	22.366209360020804	-0.14523013079170435	3.6853249650901607
H	2.80153581	2.84285442	0.41735656	-19.597693281908004	-5.029777585932439	-13.013259729166977
H	-3.43809487	0.1127255	-1.33021664	0.9213994997711166	-9.253782772164366	-12.138433695654948
H	-3.80294445	-0.25448532	0.43291972	-11.51731338024356	-21.956308150891044	-5.515238242275701
H	-4.12668927	1.27135922	-0.14543832	7.397417676998278	9.96975177828059	-5.141585834768324
21
Properties=species:S:1:pos:R:3:forces:R:3 energy=-406735.00544292404
C	2.21744733	-0.43373452	0.20915431	-43.74713115238106	58.71539112711614	-3.1343823372195363
C	0.85671758	1.98865206	-0.36673334	-0.946139009416881	34.17078227840173	-11.013670589799542
C	2.78071265	0.79941319	0.45420712	6.383469404238945	63.85619830451527	-8.1543532094782
C	2.16434588	2.11428924	0.08905678	6.238344549522999	-78.46949754364059	35.24690952881964
C	-3.30606423	0.17985139	0.04632654	-45.45406836314796	2.300716704316041	-52.29882128117521
C	0.85633307	-0.48063631	-0.20569305	24.15729950135545	-9.083031583715732	-3.6084139510092337
C	0.21652545	0.75081037	-0.51922952	9.403952665016368	-17.504998654307244	14.018286055299198
O	-1.0424175	-1.90824375	-0.5176071	37.39903777709133	-16.204999470904585	20.086768970517802
O	-1.68840883	1.10220696	1.36233327	21.72346772312177	13.089803785667613	4.427356338586681
O	0.97681861	-2.92126605	0.06737635	-79.61360588456576	1.1544608105962606	18.93930163724857
C	0.16026798	-1.79783411	-0.22242236	-18.637770057739115	8.790995105278723	-24.243221635617513
C	-2.00844128	0.7191558	0.26047009	46.88664354365464	4.544961169496766	36.74181720885737
O	-1.11006817	0.68641081	-0.83281804	-30.801361353142337	11.272930720012305	-5.928513206806142
H	0.16125015	-3.52364681	0.34292658	52.422260555217406	16.32508259890904	-19.183393117275138
H	2.73890551	-1.21293494	0.64828187	16.290960353658896	-48.70426811650493	9.033956078457106
H	0.33715785	2.95950653	-0.55853634	-3.3225093177249763	-23.04590685819166	0.44512148185586126
H	3.69888933	0.76024804	1.03993945	6.814386045957915	9.329177387948981	-5.209180154524313
H	2.51913414	3.08229388	0.48636002	5.109751168435637	-11.748659992195538	-12.243843799048921
H	-3.21698724	-0.69902939	-0.63827992	-13.176562999227386	5.213312112996234	17.917133508339482
H	-3.87986109	0.1686928	0.9849815	8.035270253379297	-17.064293221301583	-4.661015688908398
H	-3.81682427	0.98166324	-0.52735167	-5.165695403305377	-6.938156664493119	-7.177841837119808
21
Properties=species:S:1:pos:R:3:forces:R:3 energy=-406739.2419657364
C	2.23063068	-0.35205848	0.33778734	16.619123265354702	-59.75636626514011	22.87393511769731
C	0.81576074	1.87576733	-0.35692237	12.847092919670677	6.474673830975533	-9.500481052442137
C	2.81888308	0.88627753	0.50334976	32.357607092760844	20.079233252750942	-2.621252237133089
C	2.13426373	1.99690396	0.00030224	16.13985026147386	-13.89302089477328	28.189730206863626
C	-3.24510636	0.12885697	0.05786415	-66.8852482876208	-3.346073433100966	-35.579660043942425
C	0.90889523	-0.49221188	-0.06779094	-58.3352147968245	15.289969250208557	-26.26617537767264
C	0.1765233	0.68901209	-0.40192246	-20.8311593258516	-32.84554012969238	-5.528545023493369
O	-1.02570676	-1.91919398	-0.71087615	38.5496040417411	16.449568718187983	14.600696023127774
O	-1.56237177	1.20653841	1.34536408	-8.33341331949108	12.59080573425413	22.22109849732942
O	0.90202055	-2.88173803	0.05593501	-3.6478111083879985	-16.87516542006578	-9.91865668375681
C	0.12236619	-1.74017154	-0.28265317	-8.821070315832149	-73.9085883266347	-6.064735908669725
C	-2.02501265	0.78416632	0.31340357	57.425124120022524	-0.6516658950534536	20.40491771068647
O	-1.22470968	0.67017601	-0.80362446	55.01722539330793	3.81882603553807	-1.8622677241737604
H	0.51593167	-3.80222053	-0.22137004	3.8839344386659227	59.13128499390893	10.404444501794027
H	2.72456617	-1.34696945	0.57993479	-5.642586253162928	31.240205182267534	-2.677666876668532
H	0.24935194	2.68947124	-0.64042231	-25.480978318446265	48.62434275322893	-14.319872211295179
H	3.84103415	1.10811407	0.95918444	-27.376878777976547	-20.246027519944395	-15.816293024004462
H	2.65288999	2.93079701	0.07133077	-0.19202906541146003	19.530500459030748	-3.7585235943031945
H	-3.15086631	-0.94638698	0.13367058	8.403909990479097	-11.586249803622783	-0.2902979970903302
H	-4.06773946	0.43344616	0.68499395	-7.5994661025945165	7.655292967731871	9.86956271793737
H	-3.47471619	0.35430174	-1.00291375	-8.097615851876988	-7.776005490055302	5.640042979209629
21
Properties=species:S:1:pos:R:3:forces:R:3 energy=-406737.2366503144
C	2.30402712	-0.35630306	0.07744976	40.29031392893716	47.10879586797048	-13.467625067767438
C	0.769008	1.89216729	-0.15835284	-78.91972433521644	13.930092993249733	11.232860641598853
C	2.95407588	0.92916485	0.10647689	-52.98432328880063	10.134467467952327	19.630265436693666
C	2.06321877	2.11471611	0.06083001	101.40465269619025	-16.82161192484794	-24.792708587758874
C	-3.42442128	1.05141436	-0.3586853	-69.32818666157583	35.2998611463926	-10.526371832333558
C	0.94288153	-0.57103861	-0.18428389	7.307650832908436	35.20815405210965	35.98959860543225
C	0.16925253	0.61948736	-0.13752035	-3.2285652181077986	4.168166433427211	-48.65847492307082
O	-0.88789993	-2.01233596	-0.23235152	-46.151058533164054	-10.551126501712222	-1.6938008903585402
O	-1.98122304	0.58300327	1.43695273	-2.932365768286569	-12.85376198488326	-3.4604228568561504
O	1.1548812	-2.9569852	-0.05372801	24.14939654312883	2.2715806156877743	0.16545899863755192
C	0.29659365	-1.87983526	-0.15272917	15.606445742964597	-30.529869574972295	-7.621809003870444
C	-2.19495641	0.65569525	0.2424019	70.43701694246067	7.997120629666643	18.887512879207666
O	-1.12883278	0.69338274	-0.6774369	-13.591179403282206	-16.778741557037662	14.556759630866685
H	0.75838546	-3.86378177	-0.10671808	-11.065394172833985	26.05140179473651	0.56789228889467
H	3.01606121	-1.14657812	0.09450009	4.8425463693109165	-26.891017934659484	3.995010520389711
H	0.06327158	2.77023824	-0.29543427	16.995260999662662	-24.03016517090812	1.169632456207713
H	4.03856599	0.98659813	0.3431439	-16.122197319685057	1.5452509308279259	-9.067686559344963
H	2.43149157	3.15164863	-0.18207906	1.419277021095046	-22.20436036309713	19.12576900398985
H	-3.33972973	1.80118266	-1.18309211	5.233620804793534	-14.218154209061098	8.760640034440794
H	-4.13898258	0.2777622	-0.67516315	9.399813012598091	-6.431409646098014	-1.2045361748712529
H	-3.92766623	1.55547721	0.50030246	-2.76300019309758	-2.404673064743782	-13.587964600127496
21
Properties=species:S:1:pos:R:3:forces:R:3 energy=-406737.8042249706
C	2.37411685	-0.37380162	0.22399511	2.2806424472724403	-11.05550160399664	4.719509477912946
C	0.70018122	1.99257606	-0.21047341	46.71365146006092	-78.19106632071967	5.5071047356433045
C	2.93212657	0.88699179	0.17360888	-43.700712843404894	41.31207472782104	-7.35558988311338
C	2.09070308	2.06623534	-0.05187752	2.6736857253852784	-50.07827148732037	7.58699826744769
C	-3.44884034	0.99186285	-0.40431233	1.6998510172489572	-17.631905355263168	6.26308023788162
C	0.95105545	-0.53925939	0.01088313	29.361880812445875	51.00661275974863	-16.828263046803617
C	0.20222516	0.65752316	-0.29889408	-30.59516044304691	-7.050999239063796	8.319146710904612
O	-0.9308862	-1.95827624	-0.2670462	-4.628877940427554	3.4521691272864263	8.69278707987976
O	-1.85566798	0.49669651	1.50390086	-13.255923607773381	23.717018437027313	-13.010798775390775
O	1.06655292	-2.88105761	-0.18756085	81.14460589758676	30.86039498995128	7.049015656193389
C	0.27588272	-1.80699541	-0.12034547	-49.36469598349959	-30.198397176884633	-15.143487093399273
C	-2.13033448	0.76763429	0.35602775	3.8652180684832413	-34.049542630209494	-28.38648741892233
O	-1.17786562	0.54700222	-0.71651347	27.144241961762557	28.87576843063988	34.39774322260509
H	0.62531681	-3.70390715	-0.13787831	-38.43957245250166	-35.21390852866517	-0.3063216958016329
H	3.17550516	-1.15012653	0.44252443	-39.368245169196314	4.507649973365929	-6.24266700659881
H	0.08921834	2.84687808	-0.15868124	-21.388939777443756	23.55218777955164	-10.899010051090269
H	3.9811165	0.96064189	0.40121832	11.309132880810383	9.950148703005308	-3.838888464973172
H	2.49732767	3.02855789	-0.14402718	23.63817124381696	32.424925575751026	5.4735153639970315
H	-3.2501601	1.26313572	-1.44276626	3.254554655536826	0.09290446323016331	-0.42655195230036985
H	-3.96499915	0.0093786	-0.40802363	5.696217142874805	2.850523377791386	-0.5191410797278668
H	-4.18576799	1.67631445	-0.00516525	1.9602749040090977	10.867213996952993	14.948305715656028
21
Properties=species:S:1:pos:R:3:forces:R:3 energy=-406738.7114652026
C	2.37825619	-0.37193848	0.22812681	-5.435074743316839	-19.624921128100226	3.234689771688478
C	0.70009234	1.99475894	-0.21419478	52.32225716962064	-82.9009133245012	7.296656929931772
C	2.93124532	0.88468494	0.1724792	-31.16534900564143	46.40709007110077	-3.8451341494144007
C	2.09481831	2.06468214	-0.04834604	-1.1688746823157352	-36.89157098043155	3.101558958750833
C	-3.44479201	0.98822708	-0.40476084	-0.18328909613851216	-18.780983004163765	16.35473778374492
C	0.94828723	-0.53677126	0.00986976	33.665745391662256	49.663929172931326	-14.672267044662222
C	0.2019256	0.65718892	-0.29875424	-32.449983343184854	-4.440867728576997	6.512972036001729
O	-0.93106466	-1.95862552	-0.26826449	-8.134920566188413	3.1306234477554824	9.3873800141387
O	-1.8562384	0.49747334	1.50448803	-12.640786884809414	23.07849684998749	-10.930675673176372
O	1.0663295	-2.87832901	-0.19048927	69.67747961252157	7.722401970998451	8.860519176435801
C	0.27306028	-1.806888	-0.1165978	-46.059386710062086	-28.552501649305434	-16.969238421877215
C	-2.13356648	0.76717623	0.35880592	6.779478780045092	-34.0419687759489	-31.264432126822552
O	-1.17933938	0.54594157	-0.72093975	28.10621898858141	29.163106601412103	36.97346400060185
H	0.61772744	-3.71855737	-0.13793884	-26.20300030642632	-12.393204024260461	-1.5708566471980234
H	3.16191308	-1.17249521	0.44236283	-38.61220840633609	9.556739882793599	-6.2407523114686
H	0.09611718	2.84970902	-0.1579472	-23.499897401609527	25.991005228347998	-11.006133568816713
H	3.98539366	0.97509744	0.40875373	5.175666421864056	7.616433490947657	-5.525026796900479
H	2.489959	3.0450536	-0.16058081	20.642748529027898	19.687364587882904	7.420448139983929
H	-3.23471326	1.25850493	-1.43000895	2.856163097526327	1.0673054111578129	-8.431044386231093
H	-3.96063517	0.0060111	-0.38733866	5.262066272597643	2.9372503087094697	-2.748729423558885
H	-4.17571852	1.67390743	0.00114224	1.064946882582172	11.6051835912637	14.0618637388484
21
Properties=species:S:1:pos:R:3:forces:R:3 energy=-406731.3695934265
C	2.40558712	-0.36575484	0.26414004	-85.96933543020641	-27.150134010168014	-18.181926561806314
C	0.71625816	1.98936542	-0.24329376	26.70797269965332	-28.165142697309545	20.303057274400317
C	2.92250038	0.88252225	0.16392609	44.19288032102013	56.49629095992233	20.7002069262807
C	2.12816053	2.0494389	-0.01989766	-34.93544138209166	46.2811777833436	-33.28066080483916
C	-3.41102622	0.95090033	-0.39733453	-16.971652448781704	10.179215061683216	39.452213425604015
C	0.93692085	-0.50061013	-0.00234553	41.34014945963238	13.282981520011255	2.8607217559110594
C	0.18765227	0.6547568	-0.29677805	-32.73069927696283	16.8151049925785	-8.043297456309375
O	-0.93728831	-1.96140204	-0.27645552	-44.978521354453804	-5.929748754244795	11.429342117789382
O	-1.86410673	0.50974025	1.50806661	-7.481583514571023	16.885885419639315	1.9187735853087764
O	1.07602805	-2.86194293	-0.21328871	11.283812072540364	-56.81409264164787	18.325198477332723
C	0.23737924	-1.81304497	-0.0901627	17.771603373179637	5.124504543826944	-26.906655109952396
C	-2.15751517	0.75190022	0.3714957	34.48715722118601	-30.95854433014097	-39.57216924112217
O	-1.18490647	0.54387531	-0.74973047	32.51199956051109	27.664087809910864	50.218133713685745
H	0.53522781	-3.74462083	-0.15482983	20.310564968394793	50.57342485288383	-6.538804439964077