21
Properties=species:S:1:pos:R:3:forces:R:3 energy=-406746.0890607193
C	2.25285408	-0.43736608	0.1333207	36.35812996635325	15.929443098540196	-4.46133733479976
C	0.8919469	2.04303992	-0.44255317	-39.17908914438299	-35.56325408150346	6.462111485787679
C	2.90298389	0.82331069	0.16811616	26.96854470086217	-24.67447018250027	-15.025785339811733
C	2.20664939	1.98045673	-0.10376504	32.39491992521491	8.328823387572546	14.668346229437281
C	-3.44655963	0.89831552	-0.39201889	2.6067392688962863	11.380719550701842	3.5042545240774774
C	0.88373183	-0.46401221	-0.0401202	-44.17693560553714	11.163054845132484	-30.762945237966733
C	0.19599666	0.82069149	-0.39365735	-0.6549362896668981	-47.49285784799442	7.1100438410222875
O	-1.0178339	-2.07349102	0.01224106	16.886177984113992	-7.2602518335164765	-12.4843262419508
O	-1.90305234	0.49030382	1.4319155	7.8567888732591875	-1.6160622866000922	-4.66116624081454
O	1.15307564	-2.81370634	0.10432759	-32.59045806993588	-69.61008954825753	-1.364203525683229
C	0.1874426	-1.87816824	-0.05089471	-3.8236032854991038	54.92916630460174	25.014695061419268
C	-2.14082515	0.64019571	0.2625798	8.976929663574136	12.598482195865769	3.761142087039532
O	-1.15796992	0.77817447	-0.7841582	11.726453896610058	1.7606238688871447	24.038926348550355
H	0.65577873	-3.73890616	0.19812257	26.70891177278777	55.557655720892754	-5.68539708947358
H	2.85323498	-1.3741536	0.1123824	-11.734521753632617	15.17734911257648	9.263510094717933
H	0.40048728	2.9821527	-0.65158756	-7.036269164898451	2.98523179242368	-3.755491687482926
H	4.02559304	0.94809511	0.16065774	-25.283293094314185	-12.559770572606414	11.012780138307214
H	2.78507361	2.86688261	0.02104028	7.664832219817388	24.103898951665446	-6.276175228977505
H	-4.32660332	0.80264177	0.2433273	2.284212029831098	-8.859769824443974	4.044815383746802
H	-3.39031779	1.94165243	-0.71851564	-2.862241473780403	3.1013763578275455	-6.131403350951375
H	-3.43893974	0.27174651	-1.2621627	-13.091292419672433	-9.37929900926506	-18.272393916193582
21
Properties=species:S:1:pos:R:3:forces:R:3 energy=-406739.0441341991
C	2.2637822	-0.38527752	0.11368313	-27.739025045937506	-43.55949659303252	6.503902002604372
C	0.8388251	2.00841181	-0.42205439	59.72775154781314	-45.194372839765265	31.731280871764266
C	3.02374595	0.75725979	0.13875844	-12.865862578211564	35.36249657834955	-1.9238166456014882
C	2.29723069	1.98104737	-0.1198327	-47.82321937530488	-10.051056019873318	-13.010117341320859
C	-3.50310624	0.93639712	-0.43449485	2.6322660175817405	13.139589001423314	14.454066931632513
C	0.78057433	-0.45140531	-0.00041155	79.91780678629026	29.745945750129195	-28.6658279562101
C	0.14874344	0.75917628	-0.34431082	4.4111747195027196	19.017702077176672	5.611606889018261
O	-0.97777046	-2.12059208	0.04962912	23.68116783551817	23.011492240569353	-12.979416267627625
O	-1.8982565	0.4419127	1.3528876	-10.179818536983904	-3.159432376222402	54.29953644803515
O	1.2002236	-2.81901009	0.05374261	-36.83343753276777	0.048752653174237354	22.43592498029687
C	0.2016623	-1.76515721	-0.04956651	-22.67427786652267	-70.6019467428349	34.79001499014655
C	-2.18494025	0.68373239	0.23032229	6.775086125767516	-13.430260125811094	-32.43003434830321
O	-1.17578906	0.80072475	-0.70523048	-1.929917180978533	8.95469519180637	-31.59131075952816
H	0.70029959	-3.52190687	0.60516485	18.12179640079839	26.213908263694194	-31.95853017599869
H	2.80599861	-1.36424253	0.18450398	-16.357458149963943	18.558887555954133	4.086979258818001
H	0.24076001	2.92325522	-0.52833952	10.578538798246191	-4.258287600031401	-5.17550640750859
H	4.13025208	0.66015464	0.40295452	-33.38636290894894	12.840891820508231	-14.369134659537607
H	2.77061118	2.94937519	-0.18460157	10.591386728517934	6.099893279466654	4.396216892745046
H	-4.2785332	0.94961902	0.32805176	-4.456544037550136	4.262233382732246	2.3473738163527935
H	-3.36817987	1.90248941	-0.91729202	-8.40045183630541	11.421656571075305	-0.722140934826136
H	-3.80776126	0.278935	-1.23156292	6.209400089439312	-18.42329206848846	-7.831067584951291
21
Properties=species:S:1:pos:R:3:forces:R:3 energy=-406735.4441850591
C	2.22392383	-0.37863249	0.14988202	15.682745946019365	1.2967244518513075	5.7939623751021605
C	0.97892541	1.84995312	-0.26892086	-116.44064275706012	73.92409863278874	-41.947422870891394
C	2.96157125	0.79904074	0.05599267	12.344936250505018	-49.16671621946658	10.419196489829782
C	2.30156403	1.9255193	-0.19143405	42.206234239064074	58.35663505086548	3.994499134215444
C	-3.60361598	1.03116013	-0.45303425	19.43412212612192	-27.284918560660238	-2.611364233694455
C	0.8657468	-0.48829938	-0.08737406	-36.073530020252825	47.0922220116495	18.17248267317937
C	0.13177164	0.77570997	-0.2481286	32.80402475902248	-70.34005489352793	-14.980218348887592
O	-0.90736318	-2.11195413	0.07421452	-43.21332802426896	3.099672847985224	11.317251693691027
O	-1.97946845	0.37065631	1.33303138	-15.619060564019623	5.666819340277272	-13.23820621220989
O	1.20125586	-2.73669315	0.01144127	32.39189510414202	-95.80000001965722	32.55201150026194
C	0.25608757	-1.8115711	0.08099411	-8.382817941219333	2.9415133430449756	-28.932520907335448
C	-2.21971955	0.69313006	0.18859415	2.330105600081765	17.638088635818804	3.072921292879324
O	-1.18119975	0.88160641	-0.73880741	6.561281039842426	5.508031180140156	9.711173263830425
H	0.87659026	-3.68049657	0.35806641	7.95029811581495	63.154109329046506	-26.656098565448456
H	2.69119694	-1.26196152	0.51570715	14.88951841301935	-17.0219589860384	-1.2359600499981964
H	0.46196603	2.76987281	-0.62268129	2.2618783954527815	-4.262002598052702	11.66093920261351
H	4.00205575	0.84589191	0.21121812	33.21204571542579	-9.216823544143354	5.716134341794174
H	2.81199011	2.90736629	-0.25796292	-6.2308933553552155	-11.340889613582911	-1.9277367997348631
H	-4.2684914	1.24414095	0.40368872	0.04010659533695793	-1.5050757292228472	-10.946086073905876
H	-3.61154502	1.84323481	-1.24069213	6.233604201655365	-17.85138424952884	20.276142076513
H	-3.8836631	0.04042145	-0.94322045	-2.382523839327991	25.111909590412996	9.788900018195916
21
Properties=species:S:1:pos:R:3:forces:R:3 energy=-406742.15340609965
C	2.28788108	-0.43176829	0.22863792	-16.20808797124614	26.06575235493087	-28.403023327741526
C	0.87751853	1.97889804	-0.27428135	42.22289751132905	-42.80545896780632	-3.9699292931035592
C	3.00284695	0.74214576	0.04471801	-48.06090392718053	26.00328103262552	-10.682580383814178
C	2.29655046	1.96253827	-0.23185202	-11.740160066081613	-13.383149945317868	16.40881687748322
C	-3.58187041	1.01597398	-0.38997736	-21.93795958468474	2.3053031621584728	-47.57278329084407
C	0.85624856	-0.50036661	-0.06762552	38.711861006377625	-8.782926263885255	33.94451453129462
C	0.20041048	0.70300773	-0.26545336	-30.47424287269986	67.60028981778322	-23.647063962991638
O	-0.93717298	-2.07883738	0.11863148	-10.843111226273967	-21.527752579464234	-5.099943160297203
O	-2.09441891	0.3369537	1.31045277	11.153633375511605	11.240761001593674	-8.917126003594776
O	1.28956096	-2.77898668	0.04240097	-52.250103650375706	-49.00681899473256	-25.233542258870017
C	0.24276111	-1.85643735	0.05165827	27.51266834955548	33.16597035599138	-6.120017765148583
C	-2.26069432	0.74995102	0.18488463	33.7290142169414	-22.06361424400831	20.673434829826768
O	-1.15194605	0.94393756	-0.77660311	-10.85370971988262	-26.33375399133392	42.052355140387604
H	0.8059341	-3.61951969	-0.29776587	24.8919580982391	28.30225694142165	23.63639361362451
H	2.91392575	-1.2866394	0.39312972	-6.695709732120167	-18.470371283804017	4.581019997373987
H	0.3517931	2.90872996	-0.46190903	-6.76281463419152	-1.7069977779957823	-0.3081798938481404
H	4.06458748	0.7214064	-0.00544904	22.946755714905816	1.056285859065214	6.996098032621665
H	2.86312694	2.89403109	-0.32717224	-2.6547320069772766	-1.1543047975928185	-1.9830994046579022
H	-4.34133033	1.46174216	0.28511872	16.32907317910991	-3.5255014765391293	0.23658472589517282
H	-3.42229813	1.66143515	-1.28273834	-10.943914353883896	-4.9967373486514495	6.270140292130766
H	-4.02649847	0.04064253	-0.76234206	11.927588293628224	18.017487145561418	7.137930704273426
21
Properties=species:S:1:pos:R:3:forces:R:3 energy=-406728.2397285758
C	2.29959258	-0.45545027	0.22671379	15.910303197176967	18.563786989200626	-16.63521679079887
C	0.85836316	2.00553235	-0.3011114	-14.168158516386793	-8.40396844161182	2.050987288298882
C	3.02290642	0.72669574	0.02428583	-29.851538630416638	22.569513540579724	-0.09330723113229632
C	2.25612758	2.00294183	-0.22592224	59.79410511963031	-30.979157944386873	2.129318874875736
C	-3.56710262	1.00828187	-0.41540473	2.873950652512154	33.27341135592379	-21.831444382403475
C	0.9346512	-0.46439287	0.0169524	-85.9426748900454	-6.943210187274298	-24.01953322780515
C	0.18743824	0.73736608	-0.32896256	25.261271811331746	22.18283515941028	24.38398165029586
O	-0.95973118	-2.0849111	0.14032983	37.81962023606856	-3.0601249741965657	-20.62021327076034
O	-2.14408227	0.32798737	1.30272641	22.03398449247209	6.48321966400454	9.081638778340285
O	1.3199547	-2.84476294	0.04671834	-84.76855936027036	-23.789639756461536	-46.0111469297326
C	0.23030297	-1.83833493	0.01194497	26.859121904743745	15.348145490657993	33.19291662919336
C	-2.23252077	0.76090986	0.18515469	2.5797281308257753	-24.448801842490514	1.651315452606321
O	-1.14568609	0.94467227	-0.73009487	-11.960982660844643	-22.605208610597717	16.664141277785962
H	0.80791196	-3.59458551	-0.45722819	31.926470465324577	25.976883862922218	34.5635145674902
H	2.73225759	-1.45902183	0.33737451	7.703235969121189	15.386853020054202	5.1089641358252225
H	0.12918472	2.91207757	-0.31100448	39.758436004955044	-29.332434315875496	-8.359735894576474
H	4.12855793	0.56761165	0.07764054	-17.398009254312992	23.74281797165444	-3.6997917613767646
H	2.91631066	2.89379814	-0.44990397	-23.56630086083655	-14.915156853033658	12.121012922619391
H	-4.16664776	1.59557164	0.2770674	-3.2341628116631616	-2.420583990220837	10.822159933750111
H	-3.5096853	1.63991376	-1.31049689	0.4125601875907573	-7.65337691072272	-7.221334530422168
H	-4.07562894	0.07237816	-0.61373688	-2.0424011869763588	-8.975803227535705	-3.2782274920731793
21
Properties=species:S:1:pos:R:3:forces:R:3 energy=-406736.7670790626
C	2.28603723	-0.41058311	0.1464563	13.31181061320683	40.12547506063685	5.069351799317573
C	0.91906175	2.00434649	-0.36904704	-5.200071207524101	-62.87041926763137	3.8293615395095153
C	2.9674415	0.81197505	-0.01728649	1.2770275339870918	-40.05523991039011	12.079144175855653
C	2.27054443	1.9472874	-0.2082032	-14.31149225753677	40.594010477202374	-5.603812831011798
C	-3.50932106	1.07674194	-0.51596429	-33.31655468902671	-11.77587283940047	24.465258705079336
C	0.85064918	-0.40468202	0.08651923	55.45550696796852	-64.7137169134991	-17.425528203230996
C	0.21520004	0.76956671	-0.30980262	-15.605896486275455	29.617247604992123	24.65762249758419
O	-0.87179476	-2.08611341	0.11669694	-85.10541894441621	-11.75906805829416	-2.3313855140794346
O	-2.20727713	0.31769586	1.34095243	5.053960381552146	2.815473282993334	-16.70091432827242
O	1.22202585	-2.93497132	-0.01646998	24.061115627729208	82.40173596132725	9.618391843289592
C	0.26674917	-1.82409159	0.0705689	68.6886491180948	-6.998513178820316	-1.7385429121235703
C	-2.22825084	0.67349505	0.17490183	-4.719572680417778	4.800132278536102	35.97835941517875
O	-1.1283202	0.88437	-0.59154952	-1.352249881094134	2.028772956471299	-36.794321820128296
H	0.76285807	-3.7258224	-0.25133391	-30.74669065719421	-24.80992183398963	-4.392246462408801
H	2.94306109	-1.24189528	0.40477943	-17.21128515408681	-11.05966387676018	-3.0209633386232304
H	0.48312391	2.93763011	-0.53056494	-29.561944793075646	30.25879255931235	-7.906096082433481
H	4.01531168	1.01390408	0.06526429	21.630763267935656	-20.330609097942506	3.9909768796331706
H	2.77744881	2.88153015	-0.19734613	15.950800741920814	21.179728414725442	-3.430213316386119
H	-3.97599876	1.89109738	0.1257341	12.985659799436373	-13.78682781998642	-17.52879535487169
H	-3.55629465	1.34151606	-1.58863676	10.447627773913386	-3.40216337906155	9.620476644352287
H	-4.1773496	0.18873342	-0.29126932	8.26825492490307	17.740647579578773	-12.436123336230576
21
Properties=species:S:1:pos:R:3:forces:R:3 energy=-406735.2874503886
C	2.33855732	-0.40673009	0.11816163	33.42284104055484	68.13067597505541	-4.66293283482926
C	0.92090698	1.86049737	-0.36442522	0.444241973004206	48.58583804435056	6.298532196879175
C	3.05449439	0.89409377	0.06079461	2.4976205503904567	-19.727896983433457	4.028821651116494
C	2.32934809	2.08252104	-0.21764272	-35.43125194496688	-51.52836736050642	-16.501582489702606
C	-3.44364114	1.04849159	-0.63013154	14.47788074757503	24.440173172891868	26.841298887673034
C	0.91927942	-0.43894121	-0.02370902	27.673278687534733	-80.0670140212818	15.525907139722646
C	0.19405243	0.69523607	-0.15560577	-24.709516889312862	49.104055590023464	-35.32628090318917
O	-0.96469018	-2.05198754	0.08763859	8.606057854149688	24.21953957358779	-2.810813058315488
O	-2.18365308	0.28791198	1.44692101	-5.150746764100174	14.122776701757592	-6.118299005026282
O	1.13898976	-2.82930744	-0.04404291	36.860038850040105	42.820920260931175	-8.54719253189185
C	0.22049043	-1.77122444	0.00449941	-6.336340225844691	-57.766551715090195	8.892158141018717
C	-2.2684102	0.66483025	0.30853492	-0.899497905031862	-13.396114460731498	-41.77526042052278
O	-1.19069293	0.78176908	-0.61152652	42.43612634605569	-4.594705527267311	33.824966404077045
H	0.85784436	-3.70347425	0.22875619	-27.85608640843857	-7.6448149188759995	3.352815186719293
H	3.00744088	-1.27798981	0.1611709	-17.977787232320598	0.16491800869189108	4.510934700475427
H	0.26875625	2.68860251	-0.65441523	5.338359249319198	6.023369094666346	-1.5426756367335575
H	4.19557239	0.99287442	0.20551089	-39.590258111773636	-13.938292828592367	-7.171668463854312
H	2.7662519	3.00690039	-0.62596908	-0.20254684540580206	-4.574881197681343	16.057402076780086
H	-3.53006045	2.15388537	-0.52616928	-2.7274575635219014	-7.368778139669506	-0.8207254816081174
H	-3.20538632	0.86859101	-1.67559139	2.9964905066424445	-6.492559604223261	-1.8032160165221307
H	-4.38511176	0.62185889	-0.3471647	-13.871445914549678	-10.512289664602848	7.747810457733713
21
Properties=species:S:1:pos:R:3:forces:R:3 energy=-406737.3990567403
C	2.30603062	-0.43588215	0.14646527	56.545256637124076	67.47518134234781	-5.002979359088245
C	0.78782805	1.99354899	-0.34640998	28.933068131837377	21.542148999091147	1.6731595475702121
C	3.0052506	0.80707323	0.0596351	-62.23886048962137	16.974407648618325	-15.504019360379152
C	2.20012941	2.01204661	-0.24790204	45.5033526217731	10.539321027223146	33.01466528144527
C	-3.38109198	0.9793802	-0.54455737	14.488131387499728	-17.016819154460844	-22.796191002251025
C	0.96453327	-0.45868632	-0.07951356	-12.561848584239964	-22.11052891628213	12.479665770597265
C	0.28311953	0.72341974	-0.27722908	-55.03069192554668	-2.374032697497237	6.06505691477226
O	-0.96593269	-1.93403848	0.02392888	15.062362694630753	10.331121351727374	0.08052557513069325
O	-2.23145337	0.38640127	1.43950618	14.163011284526064	-5.174789341509814	25.297421549425493
O	1.11211058	-2.79787135	-0.02253455	17.738456482969465	-42.12567740996063	-5.697944461994539
C	0.24559773	-1.73278626	0.0069365	-42.053246766521696	-51.31808204294047	-11.387795548989699
C	-2.18946782	0.60519748	0.26456237	-6.244754062951652	6.152526377320011	11.620560993751452
O	-1.05922021	0.66334657	-0.52282541	-27.265349072288792	5.0108182642715215	-30.447767599453467
H	0.73278804	-3.75631433	-0.1393216	-0.05638669624363482	63.12550609629339	10.011723040755019
H	2.88447852	-1.27364594	0.41763227	8.76789825056448	-29.859256773319693	4.242545452048349
H	0.02414928	2.86212754	-0.42743636	39.697419360440094	-28.96820164624538	0.019995118863015037
H	4.08202658	0.83304483	0.23325595	-2.9169941807108097	6.837383068086252	-1.6999338133129913
H	2.75692751	3.00404755	-0.15007605	-17.007308076134397	-26.540613721214516	-10.63850542648447
H	-3.15657676	1.93826415	-0.96173167	-1.7038924499550059	24.65027043095856	-8.742363882002053
H	-3.40583742	0.31412177	-1.41508291	-7.555010427954212	-3.696069024255582	-1.7265346151023677
H	-4.31026676	0.98895207	0.0004055	-6.264614119196762	-3.4546138782509095	9.138715824699213
21
Properties=species:S:1:pos:R:3:forces:R:3 energy=-406748.92204011657
C	2.31622429	-0.32748426	0.13035048	40.095662423634	-33.504326963306816	8.879694768105052
C	0.85005902	1.94232938	-0.30230661	29.72221313075947	16.1578977482578	-9.128696629747402
C	3.0178015	0.84587799	0.05270852	-51.95236117975122	48.14534241179946	-3.8398901575831754
C	2.25569122	2.04384583	-0.08443737	8.694293082374738	-30.69367326959551	-8.500664323019102
C	-3.44133194	0.88107063	-0.5299373	-15.168256375890023	-18.318615977239133	19.538361601983073
C	0.95263246	-0.49324901	0.03842558	-26.200344656624306	36.62807964064321	-23.094063910706385
C	0.20544376	0.71023481	-0.27741742	-9.789038017098031	-22.61282570932309	8.821358289474713
O	-0.93435956	-1.89165536	-0.07675144	-45.875969147947096	-10.342976420237518	-5.066493749999831
O	-2.11630852	0.49495773	1.49271635	7.53135974727853	0.46923194909014626	-37.2336849800995
O	1.07436971	-2.88752265	-0.00800721	57.74586602886418	69.53939499489077	-4.282859334639901
C	0.25452403	-1.77989916	-0.04269269	27.21587069094324	-18.325803654155656	16.12154096160088
C	-2.2139141	0.62161482	0.28362735	14.164730744891413	21.557916684951252	13.66967646125286
O	-1.15376734	0.66639028	-0.68549711	21.43891927867327	7.031905800400085	25.434914742205017
H	0.56136331	-3.65141603	0.04678218	-47.20228339235355	-55.392480768443875	2.2717936443515394
H	3.02839293	-1.13830368	0.27215123	-14.693396825500374	-19.65918070960948	-0.7668369660996086
H	0.3779388	2.83701376	-0.72791091	-9.138233716906509	-5.462448863928602	11.982255124330054
H	4.07577552	0.80313898	-0.01758088	23.893037065717735	6.235042664054348	6.784911751941079
H	2.82805456	2.9719998	-0.13972946	-11.07823453296479	5.95626632962968	-2.344521952166596
H	-3.24120795	1.49595594	-1.3906342	3.1020934498473673	8.667243300370696	-9.065466826362771
H	-3.6906886	-0.12767859	-0.88634454	-10.890577776807437	-0.15753095794481503	-4.668688114251733
H	-4.26548277	1.28225873	0.09399979	8.384649978859574	-5.91845823030337	-5.512640400568394
21
Properties=species:S:1:pos:R:3:forces:R:3 energy=-406739.9441939156
C	2.36977426	-0.38949857	0.11322144	26.61891058202054	46.72620962170991	4.946042789939931
C	0.83687731	1.89168958	-0.27994122	30.781387939883917	81.85031766036852	24.973406761193665
C	3.05215341	0.92369743	0.12899359	-74.34056981390057	-39.162484589878495	-11.702722839127759
C	2.23473574	2.02013637	-0.10800061	9.481630951643274	7.726954668915415	9.836495284210214
C	-3.59045604	0.71054354	-0.49993035	42.58092672861144	22.449803130821813	58.022268480257594
C	0.98593279	-0.49181728	-0.01017401	-63.57589630650963	8.528734821573597	-14.554859162219055
C	0.17193931	0.72094944	-0.22777318	25.428416433616785	-36.8371266514517	0.35959304274433435
O	-1.00811478	-1.99972077	-0.15786308	-5.004829450693037	10.283593374648975	6.21327786245023
O	-1.9141062	0.60696495	1.39167792	-30.041199596956258	8.48830021846186	1.073580445976508
O	1.09749902	-2.90752841	0.01484535	-39.98913419839066	16.73963578124441	6.578807420467091
C	0.17228958	-1.79588581	-0.01882837	68.02487271957753	-21.37776463530202	-13.641831438839652
C	-2.18543233	0.73318124	0.20985027	-0.6186908261171645	-30.915466012483034	25.318686326005153
O	-1.14191761	0.77947819	-0.64816928	-4.37716202917534	-3.721516054627395	-41.16875134513781
H	0.4540804	-3.66415383	0.0396464	14.202917304165366	6.3899063491853	-1.9462102164054091
H	2.99188908	-1.26821655	0.17553756	-0.6846160860802283	-10.80330838261361	6.1503899976119305
H	0.37568221	2.91123509	-0.12553067	-9.29156454432631	-28.423587997690316	-21.332331024456288
H	4.04748997	1.10269385	0.42723604	32.67178943865817	-8.539644983884708	0.6763125168867828
H	2.67561983	3.05128739	-0.07167125	-9.659699841309077	-19.22673152980061	-1.0177850786532086
H	-3.50510709	1.10572295	-1.47827291	-1.5492176596932852	1.8959369686792549	-29.901910657230715
H	-4.03118157	-0.26668656	-0.38066958	-1.373588079663325	-12.92171694298182	-5.868323891063621
H	-4.14918499	1.40694853	0.13464326	-9.284683665362213	0.8499551851047327	-3.014135274609799
21
Properties=species:S:1:pos:R:3:forces:R:3 energy=-406741.08542909636
C	2.3353703	-0.39417676	0.14228259	-40.799337419673066	-43.325568882447726	8.384619253909753
C	0.8665606	2.0101427	-0.19037342	16.026369138214267	-107.56057905999977	2.178915966585551
C	2.87818337	0.84649387	0.15178227	84.91909170764127	-10.770648986275239	7.8889351214578625
C	2.2446976	2.04895125	-0.05268096	-42.0776042669337	-2.4951205686008633	-0.6759271885206668
C	-3.52797442	0.65960389	-0.37156528	-20.366368810114338	-24.056308056800283	-17.589722059363986
C	0.90949531	-0.51220603	-0.11884371	28.428440002307514	-21.60628709395643	24.255271833592708
C	0.24408117	0.68162414	-0.22332294	-34.4377649569834	74.25095920532534	-31.967798867516127
O	-0.97210311	-2.04001691	-0.18016363	0.12928857365632251	6.244571034897344	-3.335664045335188
O	-1.89640197	0.70890945	1.39503574	-3.5194982646823094	-8.7160978789558	-18.77574378876657
O	1.05219313	-2.8385212	0.06318473	75.25589403825256	-30.98372599772797	7.260408408688632
C	0.2389819	-1.8559529	-0.08269787	-58.81115885395547	64.76485168017301	-11.483670885636469
C	-2.14009102	0.68084559	0.1967822	12.56531384946815	28.928619392145077	17.04945587042989
O	-1.13836213	0.83988646	-0.768403	21.014242969650486	-28.862882179367343	27.044984858203193
H	0.53602568	-3.61778402	-0.10938162	-17.54155773909717	-32.29033125842112	0.49854618990532307
H	2.95620852	-1.30448727	0.43785759	-20.941554220965745	26.588554710731135	-15.854188543828133
H	0.19363222	2.68952478	-0.55772315	-29.10731029237383	57.947590671589055	-10.653208650577044
H	3.9905558	0.78288807	0.27094806	-16.075509230787326	15.319236107508223	1.1599623992795867
H	2.76639543	2.96145009	-0.12510918	18.36921250153435	26.08011661427143	-0.32489386041331475
H	-3.63395959	0.66004839	-1.48960687	9.952740047227962	6.090338322241773	18.42190422573772
H	-3.9238308	-0.33459892	-0.06289175	1.4945681343847208	6.3055200073154705	-1.4826530314110273
H	-4.23343635	1.38777501	0.08345116	15.522503093228922	-1.8528077836458874	-1.9995332064216678
21
Properties=species:S:1:pos:R:3:forces:R:3 energy=-406740.13388380257
C	2.17434432	-0.46102851	0.17653043	85.20162252484867	28.612176247779566	6.7287075345999785
C	0.81364573	1.98012791	-0.19003723	76.01864854123926	7.557559575908421	1.8293675441389154
C	2.93181665	0.81422759	0.18359481	-23.143459691176766	14.15990676408255	-8.855269736355769
C	2.22214209	2.07245105	0.00054921	-6.809654377771244	-94.80562452284722	7.952699993877288
C	-3.4786163	0.55442433	-0.27705079	12.04852137168688	12.05222159754642	-43.79651572697806
C	0.85677763	-0.48209768	-0.13040331	-28.44951572989205	25.368864261484642	-6.174923586172677
C	0.19686939	0.8002631	-0.34559566	4.51288834646318	-66.68650204196572	8.00118747056137
O	-0.98852451	-2.03711485	-0.20637346	12.009918189822884	1.7939464305472381	-10.686583664551973
O	-1.89590497	0.76636425	1.38427336	36.471965175279486	6.3818730882190895	38.539332202432725
O	1.13064841	-2.88659274	0.09783332	18.802105769697246	85.2711232063899	-13.166966921631595
C	0.21138212	-1.80904189	-0.16452063	-11.05444426518469	-23.966910882458993	27.646715373708354
C	-2.07920065	0.72470587	0.21153805	-21.595370285186792	-9.912591430120441	-13.109847319331573
O	-1.07419763	0.80465672	-0.79870433	-52.599726431636384	-1.1262333118538375	4.790537128100151
H	0.59548757	-3.63733898	0.0541525	-41.89963915874346	-58.71858293673624	-1.3782657752276164
H	2.61648688	-1.48827839	0.34537105	3.334875559547116	34.88697566206253	-3.2671505387235587
H	0.34659283	2.84189849	-0.50847448	-34.90155299893033	45.435649624104535	-8.216045787620297
H	4.05044346	0.92270279	0.18913733	-22.799330331566903	-16.591413442189435	7.754673835982072
H	2.7514029	2.98994683	-0.07908551	9.798851772540562	19.94590881771749	1.4628545221901808
H	-3.38615533	0.51535857	-1.38958364	-17.992786182998195	-4.703753919944689	11.472610126737324
H	-3.90743222	-0.35819586	0.16758171	1.9791652931965489	5.615214370533019	-4.851994658221235
H	-4.04138617	1.46086461	0.0285202	1.0669169087648969	-10.569807158259463	-2.675122017514006
21
Properties=species:S:1:pos:R:3:forces:R:3 energy=-406732.74941451434
C	2.25380714	-0.37431372	0.4208754	-37.267121270908916	26.17106568377006	-35.75864165239918
C	0.77282949	1.92231956	-0.39747249	55.32979667066752	-53.74376493104976	26.441566631201876
C	2.90217286	0.92010462	0.52351891	-31.189602429092293	-64.21431109358414	-35.024952120325466
C	2.14453173	2.00343743	0.06233968	-49.49247596808178	-17.894763430836196	-7.066551713071503
C	-3.31381208	0.11573703	0.02007136	23.364438882527246	-3.614107972052397	4.41692211745138
C	0.90463179	-0.48879085	-0.15753629	-4.033562489242141	-6.060396233314218	17.91982929593882
C	0.12821457	0.67919285	-0.48869417	49.45960435785068	23.856413959710594	11.423376557553242
O	-1.02855057	-1.90074228	-0.65410592	30.838570620670737	-10.497035433138047	-2.2851945570142966
O	-1.55376191	1.21133198	1.34028339	-2.981151441330847	10.076992993667558	42.61932460584211
O	0.88481591	-2.89405733	0.08315657	-43.67883476461806	-34.10908326892089	-52.21930449477434
C	0.1556099	-1.80433075	-0.31115957	-0.8596780328094489	31.07662146079202	23.06388158761034
C	-1.98942988	0.74974944	0.33003521	-21.800715797628293	-10.866590772889447	-6.061548561080602
O	-1.21435558	0.69093448	-0.78046269	21.54724980646714	-15.09212284655652	-39.76340252204256
H	0.26337681	-3.57272295	-0.42949459	38.005956970176925	18.117307863619143	40.088278275543075
H	2.81048994	-1.29802764	0.61916573	-4.302281312595803	4.565237009095422	0.8100173095890884
H	0.26792932	2.82828399	-0.54288055	-20.99116692387897	28.773861934042653	-9.487070478586421
H	3.98256811	0.73634766	0.54978797	0.020749626776460417	27.954258623835706	16.795280664362064
H	2.37289256	3.02121535	0.12865844	34.09360954011996	35.882244407789294	3.879279918854049
H	-3.0894352	-0.97433074	-0.01684874	-6.894201892142916	9.726314983720306	-1.057599470922314
H	-3.98257414	0.3604178	0.83046929	-16.147324932984965	1.659310501104098	1.0165462916949877
H	-3.57200833	0.45318706	-0.98592048	-13.02185921994221	-1.7674534388049834	0.24996231457583323
21
Properties=species:S:1:pos:R:3:forces:R:3 energy=-406736.6325964053
C	2.19812876	-0.38418992	0.29113041	9.68223384245254	-25.35854476839837	40.06069118761277
C	0.83613012	1.91417536	-0.36080699	-33.86205237583177	19.277173270621613	-30.90440788490244
C	2.77287893	0.85548028	0.4604231	11.407047717835104	17.031120826551163	17.70378198319074
C	2.15193376	2.00904965	-0.00164417	14.397573832813855	28.748788866870942	-4.453729574451489
C	-3.31081855	0.12547444	0.05025444	-5.237248549685529	16.33324319077974	-13.519337139275441
C	0.8161719	-0.48097401	-0.0349221	32.50314054888131	-63.217069545449306	-6.057303347029294
C	0.18302048	0.65766554	-0.34471566	-19.689541453077158	73.23647585913929	-36.711328585817746
O	-0.97326922	-1.91806745	-0.74282666	-67.55515719758264	-21.514484404278704	-17.70231257533458
O	-1.57944352	1.22487328	1.39457337	-4.384841284878744	-2.0304927377551976	-12.494768144836828
O	0.9349129	-2.83288088	0.03245061	-24.143730475235454	-61.15757514716088	6.209441661123943
C	0.09629505	-1.80977935	-0.25712184	77.66021449937809	30.693543656051766	12.855776602173687
C	-1.96787849	0.79877674	0.32780766	-25.1343887879761	-12.690326871267253	-16.770061523184925
O	-1.14775827	0.65572149	-0.83043431	4.644649073226624	8.339742633891788	45.08633974003072
H	0.39136486	-3.71866791	-0.0693669	27.65188142608736	49.23133252266859	1.3750058964702383
H	2.81591269	-1.25541898	0.6459176	-22.66678859079217	12.243100815058643	-9.486026313091811
H	0.2309153	2.77669983	-0.76946966	16.015814787726235	-18.821199462931148	11.833957977713519
H	3.54787344	1.14173214	1.18392529	19.800639500012963	-25.29946892605789	-15.255997701446836
H	2.80565155	2.93651616	-0.07505261	-28.383520787967203	-17.788798216028113	6.62664214059558
H	-3.08261127	-0.93017607	0.24545281	-9.651629209871043	-2.154729082488845	9.78283594780098
H	-4.14995532	0.58049093	0.61376801	12.536703885183305	-11.437984670128808	6.869343450281918
H	-3.65109867	0.11711162	-1.00795845	14.408999599300826	6.336152190311087	4.951456202377157
21
Properties=species:S:1:pos:R:3:forces:R:3 energy=-406728.52116849285
C	2.13080049	-0.43845467	0.31424674	-13.423764362091926	19.980596905966706	21.991563464080592
C	0.82838479	1.96960073	-0.4188098	-0.3430042221245769	29.125007636305817	-13.577665053310724
C	2.74617148	0.83209065	0.44728971	2.6376053785515374	-23.804895662090477	-7.128160374001326
C	2.16602645	2.03909042	-0.00692822	9.419631797736974	8.853950952361236	3.8471380658348275
C	-3.38760164	0.13764168	0.02712185	48.632429741055105	5.621916484482649	46.46376456416406
C	0.7708309	-0.55831452	-0.01264548	41.820400860800504	101.15428873363476	-6.6794811346405005
C	0.18152068	0.74939345	-0.34959827	47.670432826961814	-47.43694200519723	-4.075954517437406
O	-0.96975561	-1.95804767	-0.79021178	43.10699981480348	-12.51431116675676	35.60433320197795
O	-1.61635642	1.24124104	1.42394293	-9.723128858135956	-17.557561191095342	-47.641043522866575
O	0.99201795	-2.81522311	0.02936754	-47.26349725548218	-77.94659200776375	11.179335554675854
C	0.15976362	-1.81071811	-0.2399139	-68.98403393522014	2.6035881952164974	-52.03532553402197
C	-1.95041378	0.79012441	0.32578966	-39.28703322551053	-6.222174367262604	14.782879047725615
O	-1.05735558	0.65708731	-0.78428006	-91.27780031055363	15.963198915651132	14.286984107006532
H	0.29504821	-3.60761823	-0.01014262	47.72358907266697	34.32835897280052	-2.765892910366762