24
Properties=species:S:1:pos:R:3:forces:R:3 energy=-358815.7720023725
N	0.35049712	-0.13723797	-0.36785784	-1.398934595916	-36.689516609276	-51.250326334715
N	-0.34926438	0.19238407	0.59978243	-1.903580383087	4.013763281855	40.767817902717
C	-1.76682451	0.02825672	0.41161039	30.038721182332	15.993401874795	-78.983091516931
C	-2.60037128	0.86694111	1.06813471	-61.352219890891	-23.611824103646	1.126727229457
C	-4.00230637	0.83610756	0.84920628	13.17146057728	8.615570720967	18.473728798681
C	-4.57231799	0.0806679	-0.16581801	-25.426254661749	7.456477880664	-4.049895955773
C	-3.66745275	-0.54333092	-1.03670108	-12.276909213029	-5.303325208518	-2.366069367129
C	-2.30586619	-0.51823229	-0.78826454	-3.358247283599	-37.166059031552	2.115212684687
C	1.75830172	-0.11397221	-0.30585979	2.090700827072	-6.845949377107	48.503501816115
C	2.50128927	-1.2846565	-0.66739788	13.541479006072	38.888089171153	-12.568369563369
C	3.90434483	-1.21336426	-0.46666779	3.365096736246	-105.34151315797	-44.230685172017
C	4.57214608	-0.16946506	-0.00414304	-0.475489488478	113.470843346442	70.749367626758
C	3.81138583	1.01407715	0.44089815	-29.0211881423	-15.785395625193	3.364085197936
C	2.3655203	0.96859523	0.40627383	68.437043680524	-28.582016502293	-38.039972096965
H	-2.32215173	1.4099468	1.89294694	27.949189967174	33.788684636246	45.377147205905
H	-4.50658499	1.42145353	1.6210666	-16.97184230796	-1.779631317558	-9.489379654726
H	-5.6970149	-0.01053412	-0.3416559	33.590232916267	5.431496556337	8.037906083346
H	-4.07052994	-1.09535809	-1.89678061	5.729079073916	2.489235126747	2.05404909979
H	-1.74009383	-1.1580304	-1.46214043	14.473063186641	6.744333757597	1.759018198973
H	2.10188373	-2.11956649	-1.2463043	-8.438914756912	2.032133960758	8.070979813164
H	4.631065	-2.10523943	-0.73760953	-43.218498678013	28.25533291844	8.590017586458
H	5.60508116	-0.2098693	0.36090577	1.268485596805	-0.883491063342	-16.630957803882
H	4.26896426	1.92528147	0.90906721	-0.893345494755	-21.766666887671	-9.357752274144
H	1.73788728	1.75201857	0.76106396	-8.919127853639	16.576025652128	7.976940495665
24
Properties=species:S:1:pos:R:3:forces:R:3 energy=-358819.2517619734
N	0.39510393	-0.17354794	-0.40395242	-22.588724421246	-4.858303237097	39.248988556634
N	-0.33277171	0.17484856	0.62056524	11.62434410483	-22.528462618679	-43.253643103137
C	-1.71836749	0.00264632	0.33515842	-44.138064927609	52.369664397383	30.103955235986
C	-2.59573444	0.82649084	1.1837723	19.2186156803	-51.566548932636	-62.37914020352
C	-3.92240056	0.84880562	0.84314922	-59.349129601093	29.127807094037	29.066127101834
C	-4.5517403	0.09261194	-0.14331283	32.684333770354	-1.066442361387	-27.556283916518
C	-3.70746984	-0.49723407	-1.09798701	27.804561784811	-14.391961447084	46.587431213006
C	-2.32271798	-0.60436418	-0.77640993	0.265683493565	13.990996939615	-8.540502764892
C	1.78417565	-0.15443245	-0.16591683	-9.436906173992	21.902452120872	-29.861801148075
C	2.48396325	-1.25816771	-0.72844391	-11.426233677564	3.255583585833	16.805870578875
C	3.84733206	-1.28824419	-0.4985642	21.113239830108	15.051626980582	10.716755185819
C	4.46927087	-0.06617779	0.12332717	5.584034574643	-98.971753141985	-47.774745034858
C	3.75557919	1.02872056	0.47217321	49.65095686917	41.069970385417	-0.337775762079
C	2.41702315	1.03023354	0.27991425	-28.649274425463	-48.186470426054	7.936924909425
H	-2.14239991	1.46001707	1.8738486	14.756581097563	25.372285997148	33.645057271117
H	-4.69791917	1.54082446	1.28317988	27.606799164033	-10.178884688283	10.722471570778
H	-5.62791344	0.12395214	-0.2264013	-7.258578946909	0.33297822061	-5.497979397754
H	-4.06957486	-1.02140232	-1.94592437	-10.18137897508	-9.494743979018	-22.164394069651
H	-1.58566451	-0.97643509	-1.46482269	1.354243362206	-15.354075399864	-14.808625934568
H	1.88841762	-2.08829478	-1.1937182	14.241887358235	16.388143834128	8.840903123433
H	4.35787804	-2.26755861	-0.81824292	-0.504214423796	41.039348804245	13.51314250578
H	5.53767637	-0.08315584	0.13240644	19.275883653378	2.290086194299	7.48793793614
H	4.35442462	1.94924038	0.74684451	-20.573721748414	-19.610756841825	0.384589771738
H	1.8468	1.8107808	0.66628607	-31.074937422031	34.017458519743	7.114736374486
24
Properties=species:S:1:pos:R:3:forces:R:3 energy=-358817.3654059366
N	0.39771157	-0.20731554	-0.412565	-24.544625618712	14.75145190275	56.366140341
N	-0.32058115	0.15282078	0.61558357	-5.375393064809	-11.614990660691	-48.169792932534
C	-1.73731631	0.06354345	0.32613055	-17.801423707725	-11.900985664509	-0.59097908151
C	-2.58787741	0.7871055	1.20325603	57.095994871981	22.723398290247	-8.917540674224
C	-3.93036446	0.86236265	0.85679172	-31.062419146674	32.803716591756	43.277443210973
C	-4.53278083	0.12995606	-0.11956987	27.551492425054	-37.321412268708	-78.108145362546
C	-3.69681377	-0.52267347	-1.11266484	21.907267570234	-9.100028671301	39.782938425982
C	-2.32155905	-0.64101367	-0.79362783	8.458001660586	32.174579687183	-6.399218809263
C	1.79010635	-0.12480359	-0.11845804	-39.276855522051	-54.91084021964	-77.756919590949
C	2.4550802	-1.22138841	-0.73617339	42.923144841889	-5.165520454998	42.414780151545
C	3.85875386	-1.28661645	-0.49303797	-65.81101950167	93.851958989281	29.665812159923
C	4.44284329	-0.10147115	0.13975063	27.559983526373	-49.721587953475	-42.911082910273
C	3.75707852	1.04658666	0.4711654	15.00148058178	-22.496201437387	-15.291429351822
C	2.40744451	1.00966877	0.24410156	-29.54324339605	78.019702099667	56.684569324727
H	-1.95596997	1.46698913	1.90862881	-39.205213225812	-24.400979931503	-17.177713756399
H	-4.65425885	1.57206809	1.31029473	16.263277080349	-7.646241568926	12.855180081048
H	-5.58973321	0.10696144	-0.32477514	-12.520583945878	9.985718916142	5.076146175391
H	-4.02589616	-0.98838048	-2.06217528	-6.498573581887	5.877380417838	14.777582968888
H	-1.58980605	-0.99628987	-1.53341991	-6.878486074221	-7.396793614031	4.529598545963
H	1.85837414	-2.05836634	-1.12420845	5.280298270263	6.544948670657	-2.574622066378
H	4.39481983	-2.11015849	-0.77476506	40.239729736757	-46.553709372309	-17.820028366633
H	5.53052397	-0.03473846	0.04734492	2.944798170041	-4.382606675966	13.654575273672
H	4.3407458	1.89523961	0.76826903	-0.753352884009	16.066115283256	6.10837988822
H	1.75622805	1.8889687	0.54094801	14.045720934191	-20.187072355334	-9.475673644799
24
Properties=species:S:1:pos:R:3:forces:R:3 energy=-358825.36331189814
N	0.3551977	-0.33251418	-0.38212847	-18.517960135702	14.670718965727	12.552718230722
N	-0.41160132	0.11474909	0.55674067	48.142967490401	4.659707747511	-22.552104055978
C	-1.72807693	0.06720897	0.1888672	-36.197283840776	41.704907831017	89.850437923792
C	-2.58202895	0.76335183	1.20356077	25.751493758437	-39.155214055812	-60.746064212036
C	-3.90845291	0.8868677	0.99036138	-43.168242871813	-10.886752263823	-26.734296698715
C	-4.41694866	0.25325845	-0.20876758	-6.089783653308	11.781136198296	26.548981124234
C	-3.64516917	-0.58483682	-1.00798849	4.355272265992	27.437809345012	2.090997054651
C	-2.25372361	-0.61584263	-0.84934413	-33.459481834106	-21.268688451868	-14.176676700204
C	1.70018123	-0.11035449	-0.21353586	17.500334888111	23.996912341945	19.425582255094
C	2.48586892	-1.1991511	-0.61844387	-28.836951057759	-8.276601497844	-30.226161908839
C	3.83095508	-1.20592901	-0.47793538	54.293341193771	-31.584251090119	-11.438528172615
C	4.50038063	-0.12187825	0.15084324	-24.366372977899	-40.671265286334	-16.815680295691
C	3.73181328	1.00252846	0.41160434	24.323036043107	49.49497134985	26.989181248471
C	2.34335884	1.11319555	0.27207832	12.093264002487	-77.802999292447	-27.622708504603
H	-2.17376713	1.06960657	2.10819697	29.290351719764	17.281741534296	34.738390804362
H	-4.58857624	1.37867207	1.73672322	12.341686757208	-7.929255334889	-18.863950473753
H	-5.45542037	0.41352121	-0.47617883	-7.853312174776	-3.562327114292	1.109956815532
H	-4.13953916	-1.04996164	-1.83513123	-3.936237387979	-12.445346331328	-13.488582775624
H	-1.60014391	-1.25179748	-1.41186175	6.576760114422	-5.66213980612	-14.694841432226
H	1.99804377	-2.00564846	-1.20976301	1.821811043287	9.67794770519	14.832847332224
H	4.37485623	-2.1157659	-0.96090957	-11.93979974605	35.776717574954	26.849364225162
H	5.52741416	-0.324415	0.41495614	11.535940313974	17.836391743474	0.431890788345
H	4.29619158	1.90756859	0.79390175	-15.087438266509	-18.197396477698	-7.788808979551
H	1.85173781	2.04416963	0.30510902	-18.573395644285	23.123274665302	9.728056407247
24
Properties=species:S:1:pos:R:3:forces:R:3 energy=-358816.74671149795
N	0.33293979	-0.36023007	-0.38854049	-7.569478912484	32.966977350073	26.684925281026
N	-0.43194586	0.1331633	0.54764198	80.466348206994	0.452608227697	-21.726862742395
C	-1.72896149	0.05692082	0.22486379	-55.870833770062	25.611707433363	27.600641779445
C	-2.57901346	0.75851793	1.16875416	76.200655730474	-22.799674323904	44.383192367134
C	-3.9020767	0.84514984	0.97634751	-34.631867591005	13.46570939057	-6.593866660705
C	-4.40307315	0.32081796	-0.18787746	-34.866722179356	-37.122625790788	-43.024661636482
C	-3.66021241	-0.56054404	-0.98179559	29.948925652556	-16.881405003742	-35.598171997847
C	-2.24409912	-0.61374393	-0.87160429	-33.598058114898	-18.743379679291	6.529004363209
C	1.69768648	-0.05749025	-0.23093373	-8.335679089062	-69.122618675805	-6.746406730466
C	2.4720567	-1.23012934	-0.61036775	32.785908481173	58.641738094028	-3.491789091264
C	3.87755396	-1.21276303	-0.48599423	-52.923955935824	46.833714677493	31.28610215788
C	4.51950635	-0.10336854	0.15503797	-10.770357601243	-43.39201887287	-8.373785752578
C	3.72171577	1.00999508	0.41364317	6.961692557326	-14.957630437028	-1.829315565116
C	2.32869859	1.07483827	0.25501742	13.966802728582	41.594996850563	7.895399386913
H	-2.07411023	0.9912767	2.18254806	-16.341894538187	1.08415123599	-38.964442941397
H	-4.63663951	1.2356579	1.65625331	0.262714345909	14.304228910265	14.164952050761
H	-5.45129638	0.42468168	-0.51607532	3.122561801691	1.156208667947	14.157351614571
H	-4.12463744	-1.25646732	-1.73879181	2.53422304967	24.508424011751	13.045640573861
H	-1.5408577	-1.27947109	-1.41438791	-16.655394284472	10.324500528312	-0.90304260694
H	2.04730511	-2.03003532	-1.19053283	-15.091210591965	-7.549323298406	1.66493716667
H	4.2498467	-2.08683765	-0.88321145	46.359092783672	-42.906777613216	-11.886294427568
H	5.54994369	-0.2385946	0.55331185	-10.370512471317	13.260260996885	-15.274554113902
H	4.27068796	1.85365332	0.7361215	6.819089444072	28.86131235281	15.652529434471
H	1.89658135	2.10729821	0.48849756	-2.402049702241	-39.591085032698	-8.65148190928
24
Properties=species:S:1:pos:R:3:forces:R:3 energy=-358821.11344601365
N	0.33400431	-0.60150459	-0.32315895	9.716829440563	6.172698777285	-19.564665445979
N	-0.37385368	0.08861593	0.46822679	-18.020041078637	27.377358719945	-26.728884100858
C	-1.78243227	0.24867943	0.0650323	26.256083905164	-55.710139781997	-13.221987418188
C	-2.50586806	0.86623242	1.07654654	41.286079196572	-3.702811809737	58.489787004089
C	-3.85262596	0.79958784	1.1035115	-86.986385196223	5.490857503593	-29.4251030765
C	-4.55301506	0.22425206	-0.04571185	1.193619711928	35.10309058999	53.158998461469
C	-3.86436585	-0.41945661	-1.00091255	70.518968713965	-28.690735496778	-62.215465961792
C	-2.43383893	-0.42918542	-1.03298342	9.742751859276	17.968310069699	29.738529030451
C	1.73066898	-0.32922119	-0.22089093	17.00699981977	-29.42280845238	15.104795126608
C	2.69302123	-1.31646789	-0.56108345	-5.680730950802	6.731526015709	-7.402666161358
C	4.11136859	-1.08535137	-0.43181086	-53.285784579367	15.677983662006	6.832278904825
C	4.62610611	0.11978575	0.08558519	-73.114621913386	-24.218389792928	4.030018141031
C	3.61594597	1.02695222	0.47977686	38.650735650774	18.785790576871	-5.415591456542
C	2.25815452	0.83717147	0.28297787	-11.274893516916	64.762800923414	28.818237803465
H	-1.87528183	1.12627832	2.00630681	-23.218301795912	0.881348375672	-31.792927496434
H	-4.54316617	1.20826193	1.88857483	23.224841755506	-3.731279488839	-9.617369215987
H	-5.60457207	0.38395902	-0.23668198	-12.416700274836	-3.61559767985	13.843186702786
H	-4.29361272	-0.95214559	-1.8574224	-12.661723193661	6.359215496677	4.636360285149
H	-1.80546903	-0.92073751	-1.81992303	-15.702599796113	6.547262858207	16.421086883511
H	2.13269051	-2.20444586	-0.90985373	27.103393953927	-6.230727074584	-0.9925293487
H	4.77614045	-1.86384357	-0.61176183	26.449081665668	-37.726521637259	-14.228957277034
H	5.63952031	0.20140865	0.38695037	24.436631721767	7.975056065935	-1.178641839941
H	3.99453828	1.96740876	0.90400711	-10.411159889284	-0.242162429094	1.134411553805
H	1.61916499	1.71094674	0.61709622	7.186924790258	-26.542125991558	-10.422901097875
24
Properties=species:S:1:pos:R:3:forces:R:3 energy=-358816.0954058893
N	0.32185995	-0.59916593	-0.29709144	36.424310876645	-22.395682082264	-51.851782688965
N	-0.3787231	0.08511887	0.45927394	-23.984925320391	49.008979893895	-1.79690694922
C	-1.76731027	0.26403269	0.05898334	15.694255108193	-65.51755052658	-20.622691812333
C	-2.47320427	0.86998483	1.07442146	-2.670999244655	-6.31004082413	64.448853000022
C	-3.8577139	0.79929612	1.0995824	-25.905267927914	-6.38464112233	-53.762412054737
C	-4.55147527	0.21782753	-0.01447268	-28.161734955962	24.76664120626	8.156616622636
C	-3.85437881	-0.41400197	-1.01217628	27.995978684084	-40.257983387158	-67.275812404441
C	-2.44962329	-0.43919272	-1.05444157	25.448646179808	29.412867950452	30.468213463383
C	1.73859883	-0.35370026	-0.21597229	9.046605841203	12.241133119529	32.314077660372
C	2.70271513	-1.31266343	-0.55686138	-8.519611634319	8.792002639314	-7.578503226576
C	4.09628066	-1.10134968	-0.43741124	-24.045235138582	30.183573554415	13.696989962497
C	4.60738457	0.1246836	0.07697146	-23.343782233485	-24.794972721419	15.734243583514
C	3.62398874	1.04210147	0.50822442	7.005836537104	-16.117731145946	-34.081155092994
C	2.25513013	0.84283661	0.27208637	-9.553276864695	55.106941596467	38.401466267798
H	-1.9023584	1.10481603	2.05862284	-17.903207935344	0.923610021683	-41.68214455572
H	-4.48104498	1.2143823	1.84742889	-7.758322725047	13.802826463141	25.145803915064
H	-5.6514533	0.35721171	-0.29919805	27.025439231619	-5.391921744973	30.659019347643
H	-4.36419282	-0.98965195	-1.88547347	10.486717672536	26.88175010669	33.895274640295
H	-1.84014525	-0.89073912	-1.88427777	-14.361968095361	5.935857033579	21.448349578537
H	2.13322736	-2.12846604	-0.94820165	15.327358771415	-36.48461238354	-9.776762392945
H	4.81075368	-1.85687059	-0.59065939	16.00698172596	-30.757608901329	-14.894540426188
H	5.69611774	0.21338763	0.32806359	-21.575451421072	3.690051221591	-9.729219766332
H	3.95405274	1.97840157	0.87312167	4.987546574429	26.003683436667	15.005984547688
H	1.59643833	1.70794177	0.64317982	12.334106293832	-32.337173404013	-16.322961219
24
Properties=species:S:1:pos:R:3:forces:R:3 energy=-358822.22862126486
N	0.4279585	-0.63897782	-0.13263168	-29.743748463027	2.342811966852	4.769998444415
N	-0.34890266	0.32001035	0.07555002	-19.960708667204	41.071262702387	37.916159274447
C	-1.77428514	0.20877137	0.10885611	3.06074146259	-19.193790231413	-55.377085930462
C	-2.54280189	0.90214383	1.0654822	20.582972202281	-15.573521732668	-20.562560155575
C	-3.91942309	0.80678519	0.97804936	-18.529205389189	15.546829456806	32.291314048092
C	-4.57656562	0.00187276	0.06142237	-25.595497387821	6.740946492026	-27.572858273349
C	-3.8376364	-0.47123203	-1.03506231	24.144910438711	-25.643496586925	-0.497797201256
C	-2.41782427	-0.37933117	-1.04633448	-20.370235828391	15.815405800314	60.088780428008
C	1.7769147	-0.26913479	0.02831257	12.510021774152	25.628179579397	-9.567603653748
C	2.57640286	-1.19306728	-0.58677758	24.549225164819	-44.157891373457	-30.960876768657
C	3.98229983	-1.14613445	-0.58749147	-2.306900946311	-39.188999992875	-22.703393242349
C	4.54016647	-0.0135446	-0.00742518	65.974132652502	-44.535765100804	-8.579081977539
C	3.73576573	0.95393024	0.56519173	29.530195741929	67.717294941341	12.172620425123
C	2.36291181	0.94083518	0.56603889	-0.61991604545	-82.877029286291	-27.904507861044
H	-1.98575644	1.42561682	1.82276289	-2.189809772665	10.791518423954	11.12388440533
H	-4.54708455	1.40251459	1.6613084	6.790852652404	-7.635453446416	2.498695370154
H	-5.71347449	-0.09866604	0.10187923	34.923514523029	2.372146023175	-2.981216234541
H	-4.30769083	-1.10052731	-1.79770928	-2.536728610471	6.803741887996	-2.005299166357
H	-1.7278842	-0.78258789	-1.75102321	1.657996746186	-11.129095253954	-22.618967860211
H	2.05871734	-1.94488194	-1.22329261	5.901471354865	1.836599236832	18.005109765871
H	4.56535556	-2.0747253	-1.07878634	-23.623159340765	55.157982331472	24.768474093778
H	5.70197567	-0.03448016	-0.01119967	-43.153563452903	16.713400881607	6.901170268804
H	4.27985258	1.88963012	0.90322582	-15.817525878601	-21.31916930481	-1.99392482562
H	1.69841118	1.67653841	0.85260172	-25.179034930672	42.716092585455	22.788966626686
24
Properties=species:S:1:pos:R:3:forces:R:3 energy=-358826.09592471004
N	0.34890619	-0.51051945	-0.1334476	-6.081330669064	13.539335822854	-21.910530036539
N	-0.42609788	0.38207368	0.36553824	24.0528044476	2.648587813061	-20.78118896347
C	-1.78369182	0.2694181	0.05844548	-17.034489506447	-16.511865972871	-5.656371352961
C	-2.57022365	0.93311318	0.98165253	-25.909696695244	12.983783129315	18.423637484835
C	-3.97494982	0.801669	1.00646731	18.737418898868	-20.929292051042	-23.070730233483
C	-4.53567253	0.03359985	-0.00987433	-49.409445908168	-22.207310921322	4.710352927081
C	-3.76653819	-0.60378696	-1.01655292	-72.542934870783	11.580645021026	1.049209932481
C	-2.46424198	-0.44297752	-1.01868658	103.794990701342	20.998602294445	36.271094600068
C	1.73818773	-0.21390483	-0.15305517	34.255943581218	8.673382679529	42.548378945711
C	2.56426917	-1.22094768	-0.71986305	-1.222781537113	-7.703972796252	18.259033720863
C	3.96772289	-1.19849215	-0.57655555	-6.458835368518	9.872107627028	-18.686430766987
C	4.61791281	-0.02923047	0.03072957	30.104257406044	-54.071076546135	-21.65582579794
C	3.85097944	1.00494305	0.57495977	-19.33923684825	-19.259585091162	-1.897896649716
C	2.43736605	0.85999964	0.56026335	8.440598788168	-27.76523786399	-31.97162779803
H	-2.07406906	1.54293348	1.72311941	5.75284172098	1.472741459226	8.328251249528
H	-4.58842988	1.11680348	1.83491504	-2.822254321232	12.25140996159	4.755740522585
H	-5.64725845	-0.19874747	0.02904459	26.892476338424	9.831656297191	-2.792421677616
H	-4.20434019	-1.15536213	-1.85062721	-8.994992559428	0.101729385166	4.614492791611
H	-1.84738422	-0.85492886	-1.77120731	17.690965983236	-14.522760638657	-20.764464093886
H	2.07756899	-2.1604235	-1.07125055	4.755599948068	17.851165048731	-2.238128293715
H	4.387128	-2.1316949	-1.1121814	10.060242233387	39.434560669474	28.206556072474
H	5.76953835	-0.05926139	0.12712471	-40.972261689201	5.646194604104	-4.584126391678
H	4.35599737	1.84413569	1.09097057	-9.881737542942	-8.328689193608	-4.59014253468
H	1.87730326	1.53685033	1.1364754	-23.868142530947	24.413889262298	13.433136343464
24
Properties=species:S:1:pos:R:3:forces:R:3 energy=-358818.18311759207
N	0.39618901	-0.09225732	-0.39903408	-13.171302624045	10.196558630663	14.324986089884
N	-0.35623983	0.3174136	0.52999366	2.457357144871	15.964336804814	9.489639627464
C	-1.7599344	0.22441068	0.27629875	29.683977365663	-45.555593031544	-28.575918099449
C	-2.59639024	1.01782766	0.96942967	-62.739704181528	46.845762448537	45.376369534977
C	-4.02530393	0.88980058	0.75161517	-4.988896794618	35.952864701118	11.357563173254
C	-4.48760947	-0.07610072	-0.13316236	-17.991255124638	18.780346733101	-14.604696502869
C	-3.63524433	-0.82922103	-0.89841004	52.484929858236	-6.70399203674	16.446268915292
C	-2.2714597	-0.73719716	-0.62078476	20.962216115738	-13.347009887867	-9.226059659134
C	1.79689074	0.01134993	-0.14710434	-26.886060283983	-17.294105909288	-48.044142867935
C	2.41502336	-0.97338323	-0.98305578	-9.960054085806	43.936116426243	55.014274522955
C	3.75488987	-1.1380676	-0.76907647	13.500461200198	-38.167241486617	-8.284204747071
C	4.43821877	-0.43433694	0.21463591	-46.689118591844	68.649795885755	-19.807049859675
C	3.8743034	0.82086897	0.67411259	14.967741795327	-26.170554195508	49.197290071152
C	2.47109417	1.00367833	0.53898225	12.46921102863	27.369569083129	13.283315709461
H	-2.15988667	1.71985372	1.73424379	-12.789552823421	-10.030597471866	-18.759737463843
H	-4.84469866	1.65431491	1.08949896	42.3579271229	-30.792059892576	1.216215574337
H	-5.51909208	-0.17453114	-0.44242012	-14.577005049935	7.419205391415	10.92075219209
H	-3.97004857	-1.47445524	-1.67003638	-11.51675229665	-19.614933974792	-14.250060689697
H	-1.48435239	-1.42411307	-1.00224375	-16.621536101014	8.83502164118	-7.872904364098
H	1.62113622	-1.50781757	-1.45078598	4.510782890096	-22.681593418637	-28.270684482404
H	4.29964764	-1.91656704	-1.29671765	2.206195434555	-6.375542807261	-1.877568454437
H	5.42353864	-0.72019361	0.36705691	47.484713803603	-4.219347644196	14.349198267552
H	4.4902184	1.42751149	1.45550203	-24.608323030924	-15.955509788853	-37.037440745592
H	1.89251294	1.91308357	0.90408998	19.454047228587	-27.041496200211	-4.365405742212
24
Properties=species:S:1:pos:R:3:forces:R:3 energy=-358822.7558188341
N	0.37753189	-0.21539337	-0.49831272	-56.535395318084	29.72566198469	31.050243412554
N	-0.41724015	0.43088372	0.35411518	84.491084457715	-9.389810917009	-27.983233712212
C	-1.73162338	0.28966689	0.10961216	-50.043175190534	27.676406987321	22.995376723635
C	-2.61070902	1.20863079	0.79855583	7.166121630837	-25.469951571094	-17.883891269979
C	-3.98404576	1.02935769	0.71138619	-0.257100652239	3.738078665354	-2.836307846639
C	-4.49438901	0.01477426	-0.04423941	-14.173664818136	-78.577981439125	-44.58655733148
C	-3.622719	-1.00854963	-0.65178242	-50.057412973501	7.90789917849	17.14406580618
C	-2.25416848	-0.8083625	-0.56712815	-22.148124491431	-23.187270711338	0.353944778899
C	1.72831397	-0.08979778	-0.23866412	-16.901180785499	53.444024959412	88.804771862827
C	2.50998312	-0.84187417	-0.99598625	47.670682652399	-96.406898450961	-81.87578774149
C	3.89957191	-1.02236589	-0.90578626	-11.885824044361	73.284690901393	52.419876833564
C	4.5046494	-0.18670281	0.09243036	46.517163210579	-16.988063519417	-43.243064892477
C	3.76571658	0.57889948	0.96762526	-54.144639010866	-0.894716461657	-18.676739182355
C	2.33839105	0.64652215	0.83794411	38.681555974056	-15.308126643668	-4.805673614387
H	-2.22326727	1.99696593	1.40474214	13.850632943135	11.91756573073	9.095115297425
H	-4.73463321	1.57655681	1.24927661	0.535300209731	21.047100811652	10.233302365912
H	-5.60685635	-0.19293228	-0.15397693	28.271996811642	10.986539965836	8.53842811046
H	-4.16869549	-1.9906554	-0.96768448	30.449692874465	39.531678278338	3.461143300849
H	-1.53770273	-1.57793662	-0.78276681	6.163978909492	-10.572356925444	-13.437871274895
H	1.96928471	-1.5107761	-1.69699773	4.294431743274	11.914125823915	-1.400402598448
H	4.52605065	-1.39552411	-1.66741803	9.729636916736	-25.637409636273	-19.81675819348
H	5.63949905	-0.00372438	0.04697467	-34.062035523201	-13.907790710415	6.88564692181
H	4.32574512	1.20146695	1.61761148	3.917042606018	15.582236074737	24.843768591644
H	1.77883316	1.16370371	1.59645003	-11.530768132227	9.584367624532	0.720603652083
24
Properties=species:S:1:pos:R:3:forces:R:3 energy=-358818.1603676121
N	0.46328804	-0.59942872	-0.33316142	-70.855950378322	70.81598705193	13.440479420942
N	-0.28977276	0.43908334	0.09666829	-15.758720956919	-65.043015719187	-23.823217305534
C	-1.81869501	0.24025263	0.03824754	64.012457802263	0.915264253961	-29.502202343296
C	-2.5642024	0.97897236	0.93500829	35.726622466809	43.739102911934	44.065409842249
C	-3.94086495	0.90809743	0.95082886	30.763746025874	25.639457094067	33.698095123179
C	-4.56833952	0.04178049	0.17357177	-33.167919741536	-45.851231326968	-48.34540299183
C	-3.86809311	-0.6475354	-0.80621217	10.066960482843	16.966898140812	5.529545221134
C	-2.51285887	-0.45132861	-0.98669353	21.308760192361	-40.110990856196	7.90983121137
C	1.81775567	-0.26033706	-0.24081149	22.511663085798	-34.227745289937	0.450773143335
C	2.74641454	-1.09810177	-0.92274684	-31.243744459746	20.727417790293	22.072495121721
C	4.10127999	-0.91036836	-0.78465812	18.092242858646	-22.564935014176	-6.169144020829
C	4.5297953	-0.02063677	0.19678243	58.844081793476	34.240815024328	10.52407191754
C	3.62184639	0.77457812	0.9240309	32.725841345954	30.93489163078	47.537268860819
C	2.29363337	0.63800596	0.70789267	-52.687939536146	25.725063945365	-4.620266803071
H	-2.07110674	1.66863352	1.72530764	-10.400191970136	-27.083174014294	-32.212780604994
H	-4.46643181	1.48254214	1.65142278	-19.170466747737	21.542756851549	26.952817587772
H	-5.6127093	-0.18250386	0.22470374	-20.293136226088	4.274689157365	6.607839996317
H	-4.41657344	-1.31844505	-1.39915578	-13.629493522259	-22.462504510689	-26.409775210984
H	-2.02345851	-1.12514744	-1.72991799	3.048507941067	19.867540204375	10.564192760104
H	2.33440358	-1.96276046	-1.36817722	-9.332483860297	-19.829578496576	-26.772071113069
H	4.75559147	-1.60551672	-1.38586807	-5.236502218428	21.020155577827	18.929404938392
H	5.64709653	0.20174838	0.39531692	-36.966636079893	-15.688637954697	-9.336777778661
H	3.90271804	1.52159374	1.80197997	0.594884812021	-36.181236600022	-44.497892058356
H	1.47356515	1.24373717	1.16387666	21.047416890396	-7.366989851843	3.407305085748
24
Properties=species:S:1:pos:R:3:forces:R:3 energy=-358809.8158218648
N	0.39659929	-0.45883917	-0.25719679	11.535810078513	-67.236545112864	-11.900953710916
N	-0.37089415	0.46935245	-0.05776574	-28.859914519722	34.364468520523	22.057431088226
C	-1.78161241	0.12139552	-0.01396642	44.258161010677	38.78750960194	11.015308703251
C	-2.40889901	0.84827965	1.00667716	24.64460691173	-12.243737196535	-2.93989706557
C	-3.78203575	0.67039858	1.15692567	-1.653964980382	-10.434154756026	-44.975993194967
C	-4.56718622	0.0819942	0.08399447	55.18846248906	16.164730428743	15.696641616231
C	-3.78396352	-0.38827592	-1.02202163	-56.699088980595	-23.015342099272	13.784323284797
C	-2.42910585	-0.57087482	-1.00254543	32.150040503262	3.666044806836	-20.441145239664
C	1.77355943	-0.26299472	-0.06971321	-38.086844611184	25.049412008682	19.688377762674
C	2.56057398	-1.22627569	-0.70755808	35.551638890469	2.714189831302	-11.912675016192
C	3.94519465	-1.05679196	-0.70848568	37.215653387455	-4.619489942253	16.120801348228
C	4.48594261	0.05372566	0.00734436	17.384300186606	2.015951384506	23.537242328649
C	3.67746487	0.91330295	0.75404138	-33.352495632157	55.221738414294	41.383830770662
C	2.22325328	0.76685824	0.80870116	71.02160154076	9.167762428611	-13.048702863145
H	-1.6170062	1.43015777	1.59502453	-39.413953090482	-11.692225520528	-4.28203123179
H	-4.19110568	1.08532015	2.02001718	-30.18422904825	15.688773034699	33.745280482225
H	-5.66998211	0.07393347	0.14657115	13.223659551054	-1.473238444639	-6.568378617813
H	-4.28041494	-0.80037204	-1.87417778	-17.415591769197	-5.553807401282	-14.953165964067
H	-1.78626599	-1.02330707	-1.813088	-23.165837378431	7.322873829848	15.380172693765
H	2.15916736	-2.08339733	-1.25660834	-10.665610483649	7.571516272874	4.71291305335
H	4.67858903	-1.84147907	-1.10559285	-27.076063022466	24.83697965478	6.02947746861
H	5.5579454	0.24454811	0.29071454	-13.797889195142	-15.504912784691	-25.840161088408
H	4.16254745	1.86695842	1.39151803	-25.144130653509	-62.101361061667	-37.643711379831
H	1.66380443	1.48849257	1.48678361	3.341678815579	-28.697135897879	-28.644985228309
24
Properties=species:S:1:pos:R:3:forces:R:3 energy=-358808.4828781384
N	0.38589789	-0.45885897	-0.25497762	38.75746600376	-83.337469908658	-15.787989915179
N	-0.35977548	0.4685555	-0.05207327	-48.140586477035	49.353977909225	24.120657442677
C	-1.77469387	0.12055952	-0.0170653	38.186452428419	42.329927720743	17.269955621608
C	-2.41356873	0.84406017	1.01001477	37.87012460681	-6.593608096996	-1.186990479532
C	-3.78131838	0.67092428	1.15124748	-6.278947912963	-12.094101377679	-40.773738342494
C	-4.56579093	0.07484091	0.07771066	68.217625031553	21.90623133268	24.456986150382
C	-3.78742609	-0.37930276	-1.01935329	-42.006394421996	-21.966475073938	21.505907992685
C	-2.42953597	-0.57348066	-1.00121778	29.363716739889	12.139950996581	-17.743164354215
C	1.77951638	-0.26408171	-0.07225286	-44.894076480373	28.301608229087	23.206602773751
C	2.56526917	-1.23201056	-0.70597807	34.144264977002	26.132823383792	2.712969756649
C	3.94216453	-1.07076691	-0.70748102	44.396251133718	8.490516042383	19.559986312333
C	4.48506562	0.05907393	-0.00283459	24.484419064243	0.077330324258	31.320358905471
C	3.67131852	0.91904804	0.75900208	-24.268657847221	46.066449614988	32.300220069707
C	2.21759195	0.77801788	0.80810111	83.397494839425	-9.094798669115	-26.8002403486
H	-1.62627714	1.44660375	1.6231344	-44.460211011629	-19.124663364495	-12.193036202335
H	-4.19266961	1.07525843	2.02200058	-29.197290530921	14.683969376634	30.978416113872
H	-5.64395015	0.06496761	0.15721538	-5.129412133226	-1.824801273011	-7.277645794439
H	-4.2745542	-0.78126318	-1.85596083	-25.987542176798	-12.673504882039	-30.804606951202
H	-1.8030452	-0.98966748	-1.83144991	-19.334719648404	2.99185750364	12.906757370917
H	2.1551753	-2.04563312	-1.24632653	-20.625088595738	-16.225075685721	-9.591544820826
H	4.67077586	-1.84441287	-1.11075268	-23.921218287023	21.414052083939	5.236066997561
H	5.58453788	0.23459687	0.29475142	-29.830896977942	-15.588088041438	-29.182609241522
H	4.1616114	1.85448406	1.39905131	-24.809469591345	-58.737564035765	-36.842257791455
H	1.694617	1.48326174	1.48042961	-9.933302732205	-16.628544109095	-17.391061265814
24
Properties=species:S:1:pos:R:3:forces:R:3 energy=-358815.43374744593
N	0.36263778	-0.54033383	-0.25246053	37.01750469875	39.57099901461	11.070466137848
N	-0.32662418	0.50972468	0.01813202	-3.048451809278	-47.772896326328	-7.282095811377