24
Properties=species:S:1:pos:R:3:forces:R:3 energy=-358820.9553247918
N	0.28789344	-0.4490399	-0.30175781	28.14940139109	16.918969250786	17.678523921736
N	-0.40551546	0.52493562	0.11130914	36.640102472088	22.166120218626	13.566751808913
C	-1.76631669	0.42582449	0.02350808	-2.053288029165	-41.754451025514	-40.986897843408
C	-2.51679393	1.29316381	0.79634413	-28.97630828638	-14.7569867786	-8.712997394904
C	-3.87532304	0.91049493	0.84470347	8.21037829707	29.357751924835	4.376614481097
C	-4.42550383	-0.12953281	0.1169226	-27.384739523317	1.78022509054	-11.677930621286
C	-3.65355043	-0.9077376	-0.76588004	-16.025858239669	-7.588110859192	-18.075634395237
C	-2.31077478	-0.6197047	-0.84400339	10.307163831981	10.645015883694	44.310728849964
C	1.71293411	-0.2107606	-0.06601133	-8.708803985351	-50.615219643084	2.010445599886
C	2.50283085	-1.13926	-0.71821823	20.430906304391	17.868476517176	-16.434339676823
C	3.89506624	-0.9521128	-0.83769216	-64.194436975423	-59.917651860703	-16.557651666974
C	4.47392386	0.00246772	-0.12689474	22.281186441079	65.402621061576	53.21821888035
C	3.74132527	0.76969717	0.83697406	-17.781402032522	-50.324213446776	-26.593179322003
C	2.36794334	0.49738221	0.93620554	-39.984464750846	82.884737977354	-0.241241271966
H	-2.11575115	2.20316617	1.27417091	-0.913641794351	-14.064237497686	-0.763397863603
H	-4.52980939	1.58378576	1.36694184	-13.363994444336	3.384633326778	11.215975739707
H	-5.5370386	-0.20570757	0.11955713	16.111478162817	-5.707604436027	2.764698066398
H	-4.14122106	-1.66936103	-1.44380326	11.910235795396	14.644187466468	19.226361148331
H	-1.56099001	-1.29755702	-1.25392589	-3.276921263015	5.297454770143	-12.152899585757
H	1.96198128	-1.92359726	-1.15899699	-10.393206162144	-29.317551904599	-25.577952349768
H	4.4314588	-1.72046279	-1.34762348	16.018961737056	-6.949196900653	-16.097465223537
H	5.52229792	0.16475076	-0.25088266	21.171133195288	5.420775061043	3.29870815662
H	4.25755313	1.35066763	1.55079163	11.67786107758	21.892241758261	17.1593590177
H	1.60914164	1.17552287	1.45569586	30.148256780684	-16.667985954443	5.045201544565
24
Properties=species:S:1:pos:R:3:forces:R:3 energy=-358823.60960240173
N	0.33768919	-0.40205783	-0.09912196	7.787932445312	5.057709185586	-3.416171203716
N	-0.28538371	0.69309308	0.12987571	-28.842051073064	-37.395151113483	-6.824228609928
C	-1.72775683	0.40820984	-0.00545015	10.467034156244	-35.746503081765	-48.855358531786
C	-2.57138688	1.13846957	0.78760534	-24.510192571472	2.205527775114	4.532175036455
C	-3.99422101	0.93100538	0.85363616	69.70427981192	-9.753062930074	-8.604742023111
C	-4.47255728	-0.10483883	0.09373202	-34.221711058113	-11.527789706262	17.713194675849
C	-3.64568988	-0.82916835	-0.77019339	-19.65118853407	-41.030482086647	-26.231350780892
C	-2.29142146	-0.63111662	-0.92221228	17.031342640079	51.683402735017	29.803260580489
C	1.75768032	-0.32867446	0.01852338	-16.121827345531	-13.949645976299	-36.806219858308
C	2.48471274	-1.27610409	-0.79426432	43.462302064004	85.685836616491	67.99809333856
C	3.90866131	-1.03789656	-0.80498691	-43.856994752186	-39.604840353451	-50.698651121813
C	4.46036913	0.02548611	-0.1668138	1.61431340737	27.359469235724	56.358987618779
C	3.72238177	0.74651887	0.85389518	-12.298885960734	-2.057945981052	-45.629177830271
C	2.32047059	0.6902314	0.81171872	9.323431622474	-34.718729221873	27.570792531131
H	-2.00752526	1.7947772	1.41234336	-2.668255524105	22.296610913189	17.767722528245
H	-4.54610173	1.40086259	1.62217914	-19.111431679725	16.60025346242	14.878153123963
H	-5.51653441	-0.43012966	0.32481754	14.239465180567	2.968819676753	-15.719490228664
H	-4.11739654	-1.69257465	-1.32886916	9.432828464216	22.388323069637	7.651882577142
H	-1.73910666	-1.08361506	-1.75746943	2.856709121475	-1.483130077925	14.979245807153
H	1.95382244	-1.94251005	-1.3816319	-19.613034040419	-36.894423722166	-25.885925085329
H	4.50291335	-1.66084324	-1.50217079	-1.871072451217	7.654902635657	8.264828720344
H	5.50967233	0.27581084	-0.30193813	4.819332899814	-3.799181539861	2.287800565078
H	4.26226599	1.42785366	1.48023556	5.553727968504	11.635118774988	10.285798373767
H	1.55213728	1.05807641	1.53953271	26.473945208659	12.424911710282	-11.42062020314
24
Properties=species:S:1:pos:R:3:forces:R:3 energy=-358820.40763610305
N	0.31072264	-0.52320199	-0.0217874	4.857617427163	20.16828493656	3.09529761974
N	-0.3658176	0.5588149	0.08533607	19.279006120672	-2.96596558052	14.04252243355
C	-1.76604135	0.40068478	0.04704159	-10.098451995337	13.914095604858	7.862002959643
C	-2.60601389	1.21211562	0.90245043	27.803951354171	-52.070517125768	-29.673480428112
C	-3.93077984	0.80712618	0.91578002	-6.64702692431	5.147184859771	-11.483655336415
C	-4.48038616	-0.0823261	0.01271067	-20.252741421041	-58.020082204338	-39.759978148599
C	-3.67700507	-0.80980932	-0.93108421	-20.689931453817	9.09570888748	23.446655218784
C	-2.32635845	-0.52655059	-0.83807377	12.300137094322	-16.407447998177	-37.517695667947
C	1.7681431	-0.31675139	0.02696625	-63.742241064677	65.694077275425	45.189522578273
C	2.45168602	-1.16148682	-0.74265556	83.639649984044	7.597482448631	-6.704180146161
C	3.85386666	-1.01204488	-0.81855827	47.987669301045	-28.476814341325	-3.615481464321
C	4.60263553	-0.13557296	-0.00032959	-63.110527378058	4.530150926251	-26.981510736239
C	3.77785042	0.84703683	0.65002849	19.816033226334	-16.550731095888	-5.317707446002
C	2.38189908	0.78826416	0.73999245	-5.780739074718	-35.999417498597	-3.120766540253
H	-2.12129154	1.8784177	1.58866128	-0.142046037778	11.634299616819	10.420101907553
H	-4.65753641	1.13610113	1.59909414	-15.277281714308	26.005830018337	29.102361557467
H	-5.5711625	-0.37844498	0.02323373	22.839139377964	15.127179939899	7.45619193301
H	-4.07245661	-1.63873331	-1.60654995	8.865031988718	30.186361607755	17.334032390112
H	-1.67977784	-0.97274084	-1.61500109	2.840312684252	-0.266654922967	14.999811497958
H	1.95894539	-1.89447212	-1.26464504	-27.800395021362	-41.786862127606	-33.767798466363
H	4.51643306	-1.62781606	-1.50025028	-26.454038967342	3.604776767079	13.021463957448
H	5.70418009	-0.15536106	-0.05371512	-11.971927212306	9.778119507198	3.993454229652
H	4.36943662	1.68420357	0.91278106	4.125913107215	28.133230431304	30.520390985492
H	1.72905484	1.3466118	1.45950928	17.612886599153	1.927710067819	-22.541554888269
24
Properties=species:S:1:pos:R:3:forces:R:3 energy=-358825.90600274387
N	0.3444093	-0.45604314	-0.00191366	-9.547253394367	15.446488386176	-21.53274086108
N	-0.43175261	0.52900697	0.23621457	42.861020061045	6.160111527855	2.916443984626
C	-1.80022981	0.31056148	0.08471357	21.581441927984	-23.834538039438	-2.798490187283
C	-2.60852884	1.02866198	0.93167668	-36.673912986082	-30.645911127148	-31.535601806339
C	-3.99429753	0.82821861	0.92988206	9.061859738613	13.497239520685	5.638236514226
C	-4.51887092	-0.05964426	0.03291426	8.117744043192	-34.682117064438	-80.793735434901
C	-3.64218578	-0.69576601	-0.97821705	-46.297973314499	2.901035930075	25.237255621054
C	-2.28168899	-0.56195192	-0.88302875	-1.468575252416	-26.966300731635	-7.35902034362
C	1.76193433	-0.17875794	-0.08798196	-20.084418563322	18.674032202051	26.950037564431
C	2.46560381	-1.14922895	-0.75889117	52.710789252709	-22.799398368965	5.022154142347
C	3.89135999	-1.19870963	-0.69636857	28.204067651767	24.090900512108	-19.983132646376
C	4.55273397	-0.0544772	-0.12999544	-2.893503023069	-35.067930234248	30.728847275572
C	3.79180043	0.83990793	0.68403797	58.978204316267	-0.592758301322	-18.030498493324
C	2.45047666	0.85097457	0.63245223	-57.393817032222	-13.596340045719	-15.1677990044
H	-2.02081511	1.65119711	1.47845092	22.18183633269	54.178154148641	52.659532417459
H	-4.66832431	1.43582811	1.51249763	-2.511515798892	3.174380746301	13.555337775997
H	-5.59065369	-0.23131	-0.18372531	7.842850295591	7.189251674322	15.158914526181
H	-4.10168158	-1.30839116	-1.78766979	5.179422676189	6.154421944239	15.235002281635
H	-1.60178871	-1.24767996	-1.41985217	-2.660244662518	16.29445880816	-2.505681366751
H	1.95977904	-1.94239856	-1.26216936	-14.538303114692	-14.812147879771	-4.867435753509
H	4.55346188	-2.04497879	-1.1559921	-34.035321678584	34.285810905635	13.619632697325
H	5.6632327	0.0183069	-0.01277906	-18.277643785406	-7.198491982389	-8.493718128941
H	4.35850606	1.49933548	1.35346366	-4.873538993716	6.009913416175	-7.39307384232
H	1.85046997	1.63530589	1.06791346	-5.463214696265	2.13973405265	13.739533067994
24
Properties=species:S:1:pos:R:3:forces:R:3 energy=-358821.86780784494
N	0.38698359	-0.35508118	-0.10925634	-15.883562561024	-10.620614909173	-11.269822361433
N	-0.33998621	0.58215157	0.34932519	-14.395872716443	-19.04212674163	-15.751405418239
C	-1.70464172	0.24737819	0.13530747	-34.837192099597	-11.36642742984	-8.787509292883
C	-2.61302507	0.92864033	0.96208939	-21.581259105323	11.291346029157	4.376976624589
C	-3.99888445	0.8305785	0.89499767	-20.923858419634	-4.411051635983	-8.740213115804
C	-4.57032126	-0.06611846	-0.07691184	16.609469123972	73.620972794271	74.606891672498
C	-3.72427079	-0.64635606	-0.92706075	57.948462937656	-44.498273236358	-36.612283942557
C	-2.31365656	-0.62706074	-0.87566264	16.180587280681	51.872511601623	35.503816584882
C	1.7485886	-0.15240304	-0.09904744	18.826678631065	-36.762074842612	-6.513124215719
C	2.51989899	-1.23259522	-0.7078153	-70.081308760477	13.694763819778	16.684336801183
C	3.87098229	-1.10135973	-0.71253569	20.855803376738	-78.57508103301	-24.998203672269
C	4.57175195	-0.12756533	-0.04312987	7.062684596895	5.583774972323	-10.280075994592
C	3.82368774	0.82756956	0.60461708	-24.996593263577	73.540809376437	21.863730790758
C	2.35956372	0.87765694	0.58408108	78.517971136725	-31.347167122866	-4.888868376523
H	-2.32669628	1.66771689	1.67520207	25.572724949815	11.024513181136	12.353914558925
H	-4.63228456	1.5502174	1.52747246	17.925014301994	-29.775560126302	-18.317570979649
H	-5.61206419	-0.0537856	-0.12754628	-41.902746363368	-10.657614677609	-11.236069725232
H	-4.10915735	-1.24529719	-1.7061494	-15.646944095384	-17.874825831385	-25.5944711196
H	-1.68226913	-1.00617942	-1.6752043	-1.965604066836	-8.432373626022	1.30459098304
H	1.89197502	-2.1650848	-0.96574535	28.132306322947	33.457351623634	-2.923044772376
H	4.41332606	-1.98289061	-1.14293359	-1.541831182367	17.774940877306	4.779240871101
H	5.66702941	-0.22109245	-0.11366514	-7.230505899675	14.567976686921	9.646579160295
H	4.33567614	1.74855894	1.03559141	-10.477894960048	-29.313892320407	-1.375965419732
H	1.76275055	1.43171377	1.26827057	-6.166529164734	26.248122570612	6.168550359338
24
Properties=species:S:1:pos:R:3:forces:R:3 energy=-358819.7577298084
N	0.40552512	-0.24693979	-0.39004286	-64.611856041867	12.778489642708	20.416990675052
N	-0.4499753	0.30526244	0.43608556	62.756246149937	17.084672715012	15.369180608795
C	-1.82865796	0.34466314	0.20754924	15.063554292236	-57.814398755584	-15.799562191906
C	-2.71003487	0.91374718	1.16722266	45.136001245475	-18.1417243424	-45.952458203208
C	-4.03933297	0.78703523	0.89976177	-44.135781685208	57.839240838506	49.02266911863
C	-4.51924211	0.08590836	-0.14465358	32.475547167848	-40.668343666718	-53.166158682571
C	-3.6564722	-0.6793878	-1.00301574	-19.954270339822	25.696067979063	47.094177066128
C	-2.32347402	-0.57637213	-0.78610203	10.679332816713	21.339787682078	7.157706965717
C	1.77376428	-0.19475567	-0.05335067	-1.176424958198	-2.374628500411	-36.999898047625
C	2.5115239	-1.23312602	-0.69924774	43.401154829364	-17.311834505431	7.208189706972
C	3.92786163	-1.23263842	-0.5787324	7.69518118658	12.941928367997	-3.805756096047
C	4.61939355	-0.12059812	-0.04699666	-35.714503546439	-10.49796005614	13.869193131634
C	3.83065201	0.90970419	0.57713229	38.887349963788	34.583689622744	-34.272690382581
C	2.43364761	0.96283802	0.46574126	12.873451411146	-62.506584998224	6.022715105772
H	-2.34310152	1.45869017	1.99454781	12.594079860937	15.189431751253	20.400076722023
H	-4.70709865	1.44516809	1.53989663	7.65082923699	-23.857435425789	-14.937782471737
H	-5.49629973	0.04219226	-0.4814419	-56.797578612992	4.72167572223	1.735085048478
H	-4.08988406	-1.40713658	-1.63588953	-9.961536566065	-14.888193683304	-24.2438474111
H	-1.63859984	-1.19162592	-1.34549841	13.102774206965	-0.322838303153	-3.526070283219
H	2.16804847	-2.11535327	-1.29920442	-16.441959002287	23.056880088983	17.252925597755
H	4.59807607	-2.02625554	-0.98140524	-20.213476581542	5.15750091027	-0.555115769191
H	5.71786487	-0.16236622	-0.1501985	-9.769828516442	12.970099172162	10.496698567859
H	4.41247713	1.85924525	0.78878723	-17.906751700525	-21.355050815394	8.015320895618
H	1.7623181	1.67997105	0.86775838	-5.631534816592	26.379528559542	9.198410328754
24
Properties=species:S:1:pos:R:3:forces:R:3 energy=-358817.2034340028
N	0.38901431	-0.23661669	-0.39627106	-12.036958743585	9.359486119384	18.848192734316
N	-0.31085476	0.12457227	0.58866639	-36.035452761663	14.353739582797	-6.456426016124
C	-1.76612307	0.12078966	0.31549556	34.886979906726	-76.66229214707	-48.24993593705
C	-2.5537346	0.75507589	1.21524439	-36.194447859899	24.491539495859	-26.841543898662
C	-3.95321756	0.89085276	0.89219444	41.56426052629	-24.950234368859	6.597953503934
C	-4.49838511	0.15086848	-0.1355805	-31.05938790568	-13.090038177422	-55.069394119139
C	-3.67327588	-0.55335537	-1.10481132	4.191989186944	2.421255852315	16.914168925089
C	-2.31614699	-0.6615985	-0.81471681	12.35103912127	39.62569695938	3.101252209401
C	1.77589507	-0.12095694	-0.11019531	-32.006860157672	-52.942709965719	-71.77673951989
C	2.44731657	-1.18472363	-0.72108938	52.259119507867	-11.585292754896	43.681242197821
C	3.8449333	-1.24749512	-0.47587758	6.690374416944	-40.023981035777	-24.792648394216
C	4.43007499	-0.16375337	0.1342538	59.064753676151	60.417276124255	-3.457180298595
C	3.76739212	1.05479231	0.46190689	-18.042717603106	-40.048559744184	-16.317512328022
C	2.38334263	1.02461679	0.2352479	17.302101900933	64.663809878406	44.278552010396
H	-1.97307352	1.35929264	1.88191303	-5.234617033283	11.153764664968	24.423323463873
H	-4.52758387	1.5808428	1.44164332	-23.053702699266	14.728342337539	20.988666739174
H	-5.61799568	0.1510798	-0.39330218	34.097493047399	8.694023791031	14.417091893252
H	-4.02960539	-0.93381625	-2.11121818	-1.212684718328	5.145928842837	32.300899768248
H	-1.62994501	-1.06928354	-1.58393264	-3.93647895211	1.081895267941	15.591150632443
H	1.85482539	-1.99838297	-1.0716505	-6.698323004183	-15.486726407612	-14.575538842556
H	4.59068507	-2.09884196	-0.79397449	-41.863128182981	31.662292567037	8.203699407014
H	5.55227904	-0.01849291	0.04745434	-22.697992064364	-16.72494583769	13.887760607314
H	4.31019684	1.91996617	0.82646169	0.429874098376	3.552253314294	-2.10092925557
H	1.71783802	1.88873971	0.36952248	7.234766297218	0.163475641185	6.403894517548
24
Properties=species:S:1:pos:R:3:forces:R:3 energy=-358818.15204779775
N	0.42248392	-0.37472582	-0.40897558	-29.329462764908	-46.01804281432	-48.669133036474
N	-0.30118145	0.23597087	0.38106291	-37.26587806559	31.084029447171	59.489969187369
C	-1.7674039	0.09608744	0.33354904	42.091362083302	-79.418991173779	-93.427980506128
C	-2.55793999	0.66491592	1.22824449	-40.071857683037	73.176275748251	85.800883021636
C	-3.95856783	0.87553901	0.95704562	17.684209232533	-9.657731472627	30.650852793896
C	-4.53315797	0.26024453	-0.11687597	7.721411327143	12.483558537175	-44.526277448927
C	-3.72764135	-0.46009746	-1.08596558	-26.089104923814	22.341733289547	13.269100526632
C	-2.41229069	-0.65142793	-0.77537663	53.791064952399	25.540523474686	4.868561039249
C	1.78940514	-0.22374192	-0.29623693	0.073901257957	1.263934951991	13.454779698377
C	2.60148914	-1.33930335	-0.67692534	-18.790428943535	32.188199543255	11.885575476053
C	3.92293897	-1.21335698	-0.34371423	29.106694564389	44.193642551342	-7.8250175035
C	4.52349632	0.00807902	0.06335934	-48.60673879699	6.318462167199	35.050648531431
C	3.67020767	1.0661493	0.47870475	9.778248349971	-6.480791313561	-14.986877494377
C	2.30205925	0.95377	0.30491249	-8.375439599167	19.546816648337	-21.262477556408
H	-2.13088978	1.13616382	2.18902219	-8.804849922168	-10.476923779232	-35.21058240666
H	-4.59260387	1.54495104	1.58326982	14.725157894494	-12.931325457409	-2.898927416191
H	-5.51025998	0.64963083	-0.39064492	-9.352610743203	-10.984514349789	-4.144382614104
H	-4.11080347	-0.56030133	-2.12335396	0.708838094944	-16.840850196826	16.166535217621
H	-1.67818664	-1.13526517	-1.4492742	-11.303872303522	4.473252094094	1.552044397436
H	2.26511764	-2.22900669	-1.22146112	-9.780608463495	5.907444105445	9.464050534302
H	4.56325151	-1.98821089	-0.59826484	31.977034597497	-39.387653057986	-10.055444751714
H	5.54693609	0.1842535	0.31611919	22.621938506251	-12.581729863397	-6.254371183865
H	4.06965279	2.00368641	0.86852098	4.87011393136	-0.633884052996	-1.005595103227
H	1.64862082	1.88307477	0.37166699	12.620877417191	-33.105435026569	8.614066597575
24
Properties=species:S:1:pos:R:3:forces:R:3 energy=-358810.48586429865
N	0.31237447	-0.60482145	-0.26468608	62.923307672458	-49.519610467165	-74.264234552193
N	-0.39673488	0.09671609	0.44206147	-4.755812000955	57.779531979487	12.535901693626
C	-1.73250102	0.26902645	0.03960714	-21.705247027102	-49.896275634749	3.147022285707
C	-2.4148968	0.87271519	1.08975556	-95.545995236407	-39.858127600973	-46.54378567115
C	-3.87344631	0.79700613	1.07156699	24.200184891761	29.342335831296	16.674153832755
C	-4.558601	0.21192727	0.04634001	8.033904118748	-16.630849637564	-65.963164716426
C	-3.82752461	-0.41689494	-1.05680492	-26.992892166973	6.757851872316	31.667328282119
C	-2.47085387	-0.44574376	-1.0841779	32.27993103573	48.366380038866	47.137554512742
C	1.75680586	-0.39350024	-0.19098846	-14.687273196135	69.787381582194	46.922243068549
C	2.71649051	-1.30525567	-0.55307874	-42.939203972714	-54.200323703002	-36.661299084448
C	4.06462646	-1.12459955	-0.44340791	68.949658188652	10.403369344322	13.823508701884
C	4.56337454	0.12473086	0.06598312	8.789236076478	-20.192070250085	13.464377835755
C	3.64054209	1.06767724	0.55117216	-26.93448788504	15.279014271332	-41.791306528506
C	2.24826765	0.8704685	0.26481737	39.870390939055	-39.061571105595	22.17630636139
H	-2.00217547	1.08080329	2.01641094	33.15445754332	20.073437326562	34.814174167152
H	-4.40514798	1.29828949	1.89348598	0.197119816909	-4.228808893636	-3.71249322275
H	-5.61663499	0.28202197	-0.26772386	1.785660830018	1.887791899357	29.938989974843
H	-4.44717106	-0.94195517	-1.79321436	6.612982664031	4.509224594091	-4.071186134861
H	-1.95359555	-0.81781208	-1.93681846	17.252030373011	-12.684648620245	-10.070284495432
H	2.21009126	-2.14469294	-1.06655139	18.949881984027	-10.810331282771	8.868408672575
H	4.88865301	-1.92439728	-0.60902358	-39.967805330463	24.705257346789	-5.071340854085
H	5.68118539	0.25121071	0.16545532	-26.979466935131	0.202653063714	-0.873868426354
H	3.8988172	2.10126362	0.87514948	5.660508067565	-18.671019105683	1.182088717731
H	1.58030562	1.5896495	0.63226086	-28.151070450845	26.659407151143	6.670905579376
24
Properties=species:S:1:pos:R:3:forces:R:3 energy=-358816.8704296667
N	0.35892254	-0.69811231	-0.28233244	13.038723029041	-32.229817901954	4.679491396674
N	-0.30910633	0.30191127	0.02050134	-34.27046974014	46.867853389537	36.991320130296
C	-1.7032517	0.18921927	0.06341991	-7.25525024085	-1.509761279683	-11.964700327689
C	-2.46789539	0.86518635	1.10405965	62.099693229158	-28.264514936263	-21.677742957305
C	-3.80275355	0.77990074	1.10239355	-41.018742808317	-28.118252535704	-44.496019785604
C	-4.54988016	0.13400682	0.03628034	-18.469871944225	42.660355562428	35.943384529198
C	-3.83067376	-0.36166476	-1.00810614	56.080950426864	-23.91266669516	-51.63203283614
C	-2.34076796	-0.41872652	-1.01449711	-81.596292534802	26.642156123751	22.746658274503
C	1.70943862	-0.41569185	-0.06814727	41.003627015867	37.916379816531	17.462612229575
C	2.69044315	-1.326294	-0.44591506	-45.661124014332	-36.834417799007	-28.444171754985
C	4.01048271	-1.12066321	-0.50474843	81.665655788133	9.492915727716	28.190412665648
C	4.47053414	0.12057887	-0.00092396	43.995273009886	15.276286920062	-13.232069599017
C	3.55973305	1.10646885	0.45055877	-12.60350988069	-24.649356883382	10.006973298591
C	2.18578866	0.81614715	0.5714944	8.032095714489	-38.462166233466	-30.657110877984
H	-1.91054945	1.3042379	1.9185586	3.759818799524	8.717835411646	4.637083928002
H	-4.38369028	1.2758754	1.8120918	-19.764853243215	18.557735527465	35.480835991543
H	-5.68230794	0.34828157	0.10150522	38.01650590497	-19.553540215947	-12.835195527497
H	-4.2289907	-0.68640579	-1.99846489	-8.644190314614	2.054097642222	20.69477494172
H	-1.84777466	-0.62736238	-1.94797514	8.866380507976	-11.389505869512	-3.149427670476
H	2.49634512	-2.30624911	-0.84175974	-30.703223719843	-12.02078413791	-4.157234187188
H	4.68527393	-2.02584951	-0.75967599	-18.219390390248	40.826565413463	5.989137289134
H	5.59930233	0.39574543	0.02957595	-41.778792817685	-12.678415751929	-3.272733588163
H	3.95575069	2.04421648	0.81029247	2.227923555754	7.496987502367	6.320009991635
H	1.44423429	1.39255551	1.10834995	1.199064667298	13.114031202731	-3.624255554469
24
Properties=species:S:1:pos:R:3:forces:R:3 energy=-358809.39147543494
N	0.35900486	-0.53680003	-0.07862164	-29.479819772934	-65.285076866356	-33.143250139551
N	-0.35320481	0.47601406	0.07144675	-4.976358554476	6.425800073351	-11.939924183679
C	-1.77783986	0.24941774	-0.06394577	26.822273769708	36.619793587425	63.422213686399
C	-2.46179829	0.85054854	1.06772528	40.421515959285	-23.864887501522	0.570330351309
C	-3.82243945	0.68211502	1.12748925	-1.042529723758	18.016240077641	-12.923968789558
C	-4.51796662	0.26604482	0.01075956	-3.644150777598	-43.473043981851	-42.802140459352
C	-3.83160905	-0.43236206	-1.06812009	-19.500983784128	-21.983614376243	25.716646515058
C	-2.4163153	-0.4791087	-1.0403751	-17.034850107372	-28.052507574628	-21.187863811147
C	1.74619052	-0.45415362	-0.09621953	-4.914678606441	58.497000851328	39.056527847621
C	2.66353551	-1.4084607	-0.48407398	-9.75375542065	-7.45087637634	-23.829333627298
C	3.98709546	-1.08846682	-0.50905514	18.043389638773	48.550507281896	19.83940247737
C	4.51447001	0.17089422	-0.08045429	1.684110787375	-12.194382404115	31.766419816224
C	3.67014913	1.04374955	0.61659354	-73.613523835561	-48.014105932492	-54.632367589161
C	2.24264172	0.70350825	0.47923857	45.84656611239	74.741527101868	37.619937012981
H	-1.82607817	1.14464891	1.9790993	-20.834052349623	-2.598577612808	-33.758117252061
H	-4.409421	0.90510553	1.98147703	-9.120186067608	12.897538688929	24.610141241792
H	-5.61744036	0.28431527	0.05736182	6.46059379892	-4.642050469409	-4.577876140535
H	-4.3960634	-1.26433921	-1.64465427	16.351572021869	42.555422263065	9.394065433074
H	-1.85397402	-1.22903038	-1.6750287	-9.675427808763	25.996013173062	11.310040746047
H	2.4532318	-2.30378909	-1.03154728	-19.816166985188	-19.129304670487	2.340019458781
H	4.58798805	-1.87557728	-0.82187766	38.919698546292	-25.99440454294	-19.493745934591
H	5.58305749	0.41918761	-0.04762896	-0.919754912203	-9.886582889304	-10.010306174247
H	3.93178725	2.01964525	0.93877713	10.912529491371	18.982819074391	13.465088292245
H	1.51262575	1.50851149	0.84601908	18.863988580318	-30.713246974462	-10.811938777721
24
Properties=species:S:1:pos:R:3:forces:R:3 energy=-358820.7649237635
N	0.34397578	-0.6019728	-0.11372218	53.153519565419	-26.838571084483	1.365790757475
N	-0.3203706	0.42336579	0.0506214	-25.016344526191	25.853586047936	10.773831598917
C	-1.71559126	0.20105425	-0.01388455	-11.943577618159	38.735922279846	76.862596988237
C	-2.51836143	0.79900629	1.05329781	44.207818286454	33.863264480188	-8.863215746523
C	-3.89735934	0.78566783	1.05901915	21.811536102077	-40.133035611914	-39.883686400243
C	-4.5680261	0.07619996	0.02566386	-37.697820689319	13.319034742245	-0.665519736683
C	-3.84518494	-0.47057354	-0.99631272	19.949388049421	-0.694348923475	-39.196074533018
C	-2.4024536	-0.41504572	-0.96419283	-69.653791745965	-44.508570581657	-87.071986247725
C	1.80335118	-0.3304942	0.02607477	-44.209173589265	-2.178259096571	-12.837813497106
C	2.61079789	-1.31980487	-0.53131083	29.056234623368	7.775581824107	-0.36892652396
C	4.00948079	-1.12775179	-0.63667546	-14.777719311295	20.574993197429	18.358187516839
C	4.53925148	-0.00297078	0.00603913	17.216415384909	54.487104988754	19.102152979516
C	3.70956827	1.03640467	0.53763889	-62.901534978134	-66.7552289904	-16.308675832052
C	2.27743085	0.87077933	0.54358658	40.050228587828	18.475820819243	8.989759571296
H	-1.96694737	1.54366553	1.7091968	-13.033169136748	-25.63584972257	-8.830973584003
H	-4.39376034	1.34762078	1.77304143	-28.278933568957	22.85251998753	34.629274950867
H	-5.67995988	0.0826418	-0.1441606	19.807297965888	4.391100791437	16.427829809261
H	-4.35048939	-0.74421275	-2.01451081	19.245726511821	1.129575202066	46.519039186722
H	-2.06990332	-0.7969134	-1.93453995	26.201189817333	0.801537507397	9.191280398874
H	2.15038238	-2.23991194	-0.83436012	-8.152392557351	-9.861813108415	-11.549925703892
H	4.67902902	-1.74186639	-1.2144717	1.865734635275	-17.040076145215	0.502222011592
H	5.62986474	0.25510405	0.18591813	-21.361334453963	-20.369293878602	-18.330592665048
H	4.01937255	1.88588983	1.04694247	31.281224531199	36.23248995191	17.82835084237
H	1.61978813	1.66889717	1.0060655	13.179478114352	-24.477484676788	-16.642926141712
24
Properties=species:S:1:pos:R:3:forces:R:3 energy=-358820.97785599047
N	0.37855333	0.01310297	-0.57129915	14.132864507647	-25.508199637448	7.595858672318
N	-0.33798542	0.45562907	0.35776835	-17.935803337513	-5.767647523609	15.610746663705
C	-1.73251947	0.20960647	0.19798483	-15.437160246389	76.425032465829	48.818471472434
C	-2.62668588	1.13179359	0.93274384	-16.16367378404	-61.12894693746	-54.356956753528
C	-4.04528003	0.96493077	0.67038681	62.561607173797	23.87321455057	11.242908113298
C	-4.56924262	-0.03935796	-0.16822465	-1.412159530997	23.941876851362	35.299054101554
C	-3.71971053	-0.99551445	-0.61021348	46.000998256991	-9.301993512711	-34.163475522743
C	-2.29206474	-0.79524506	-0.49831358	-49.444949152265	-53.223517618605	-44.782873421787
C	1.76089881	-0.14710388	-0.18821414	-15.299390663938	74.074159256494	31.197462181869
C	2.45182879	-0.95643113	-1.00960303	81.944123291851	-10.881517970964	-30.764409965536
C	3.9153184	-0.99551256	-0.84811509	-28.627050666427	-62.770118653419	-28.25222776801
C	4.55135717	-0.23838548	0.08110018	41.448732024232	-8.899695655934	20.510457887275
C	3.80761184	0.65033009	0.88808704	-1.976498765515	-0.005128640748	6.99532521346
C	2.43632494	0.70814611	0.84239653	-17.53266962851	-41.200497850085	-59.891098804446
H	-2.08648945	1.89051434	1.48188351	-11.691223406515	10.718876554126	9.585936865872
H	-4.63710341	1.75953897	1.06047227	-21.785900694958	11.1608796881	8.540154774858
H	-5.61827094	-0.06423786	-0.41356727	-11.192493610821	0.40301498548	1.30457470523
H	-4.10815312	-1.75048216	-1.3151548	8.269221238143	-0.374802366816	9.231229854714
H	-1.72686194	-1.42593817	-1.17614445	13.795198797941	-5.693378268	6.625628191608
H	2.01166869	-1.3753728	-1.92487313	-3.458859883885	-4.70749652646	12.075713414288
H	4.52404487	-1.83708364	-1.34904058	-23.128570306346	32.707043511563	6.736451733908
H	5.67223161	-0.4700281	0.24110751	-38.026688419226	19.892857162854	-3.122392141826
H	4.3066528	1.29403198	1.58344934	11.577421505433	10.304513059626	10.619035556284
H	1.83928241	1.45610677	1.3237559	-6.617074698691	5.961473076255	13.344424975202
24
Properties=species:S:1:pos:R:3:forces:R:3 energy=-358828.347177109
N	0.32319062	-0.32666072	-0.33553368	31.194056584274	19.598000027999	-3.608932802003
N	-0.36392289	0.48427135	0.3488718	-26.37334636428	3.323963387683	-22.990477986923
C	-1.78938565	0.33925858	0.06120437	47.96953731619	-67.180430922761	6.735900656414
C	-2.58854257	1.25053446	0.6980873	25.545730723952	28.128773757056	9.494090379628
C	-3.94487942	1.10713594	0.69679475	-54.297500198823	-46.406444234933	-12.37053358296
C	-4.47679528	-0.08483234	0.06457158	51.001520283352	36.262129496533	-1.807848794508
C	-3.60313139	-0.95399413	-0.66296439	-68.882232362744	2.463274830588	22.420331565755
C	-2.28262926	-0.88356915	-0.57129381	69.4691099324	58.53193675259	6.14836626586
C	1.76261507	-0.08874081	-0.1927562	-39.656243122374	-69.548628653508	-53.213147400081
C	2.55323035	-0.93209021	-1.11670207	-19.522751595983	51.012673395107	36.072881375242
C	3.91738359	-0.86947751	-0.97598997	40.873219701723	-32.185184789113	4.856254843207
C	4.51633337	-0.10203698	0.07573093	2.442618925851	-24.783898655698	1.942072970207
C	3.67931749	0.53981197	0.98715308	8.12113333979	20.73150475529	31.231657819652
C	2.29089502	0.59894603	0.85169205	16.368241583707	11.11503462982	14.087046103177
H	-2.03678938	2.04736647	1.2327555	-10.732614974087	-3.351754258333	-5.104109298
H	-4.61686302	1.79680493	1.22763019	4.546196964549	-4.841239695078	-2.80957772126
H	-5.49172779	-0.3586142	0.14108112	-32.576094431238	-0.33460139594	-0.933877845038
H	-4.00634212	-1.77569241	-1.20315427	-18.090400418567	-20.280595183486	-8.541988811146
H	-1.59156504	-1.61441171	-1.02619978	-5.283912221618	10.824995151466	6.065198242339
H	2.09376482	-1.50704108	-1.91110964	-8.632350141763	-3.912190791191	2.248109749212
H	4.53259925	-1.69210346	-1.49689726	-13.347773951385	36.952909028296	8.452813634117
H	5.60291068	-0.22574032	0.30420128	-17.92484768541	5.798783505001	-6.878812898876
H	4.02236843	0.96267203	1.96279938	10.426453002375	-3.216869179958	-20.720819043784
H	1.64763081	1.11854658	1.5905559	7.362249110109	-8.702140957431	-10.774597420231
24
Properties=species:S:1:pos:R:3:forces:R:3 energy=-358822.5661462278
N	0.34672473	-0.39261332	-0.23688567	19.269350524492	-66.602475704049	-31.760583194714
N	-0.30300558	0.5494331	0.19814043	-40.798069622213	37.785901532404	27.777849114393