12
Properties=species:S:1:pos:R:3:forces:R:3 energy=-146531.2686
C	-0.104683	1.46262	0.292291	11.5762752	28.504368	12.5363808
C	1.10123	0.803414	0.0529479	12.513024	-9.4510224	-0.127301184
C	1.08097	-0.542818	-0.333049	13.4224704	-12.6603072	-1.64376
C	-0.147426	-1.22665	-0.470156	-11.4784128	17.651087999999998	-18.286848
C	-1.36378	-0.516475	-0.325817	8.327534400000001	25.912512	5.7717072
C	-1.33162	0.848232	0.103818	-24.524351999999997	-12.613104	-5.5362528
H	-0.0395564	2.51263	0.647058	-5.358096	-10.652284799999999	-5.6729088
H	2.08173	1.31586	0.162953	-15.157439999999998	-4.250592	-0.7603732799999999
H	2.06117	-1.05029	-0.559903	-23.14584	7.0322112	5.8361616
H	-0.194113	-2.2201	-0.92247	3.9844224	-2.5380864	6.7911551999999995
H	-2.33851	-0.912837	-0.632206	5.778705599999999	-8.0583264	5.8773599999999995
H	-2.28443	1.44824	0.253536	24.06168	-18.876383999999998	-4.785278399999999
12
Properties=species:S:1:pos:R:3:forces:R:3 energy=-146532.0284
C	-0.0982309	1.45589	0.313861	-12.134606400000001	23.41296	3.266568
C	1.09934	0.797873	0.0571369	-0.5700384	-0.72845856	-0.6383880000000001
C	1.07882	-0.529747	-0.348059	-6.72264	-14.1660432	1.9529712
C	-0.150418	-1.20808	-0.487657	-19.631376	2.6177904	-23.993856
C	-1.37027	-0.504162	-0.342419	5.2551216	27.235295999999998	7.5926735999999995
C	-1.3483	0.852389	0.107354	16.798896	-28.06848	-8.1699696
H	-0.0449527	2.51679	0.60812	-3.0917087999999997	-6.5264112	0.107245152
H	2.04605	1.33679	0.123485	-0.23042304	-0.52100208	2.3329152
H	2.02928	-1.0145	-0.568413	-1.0246550399999999	-5.805259199999999	-0.51927408
H	-0.242239	-2.21363	-0.948869	10.3959648	8.4354048	10.999353600000001
H	-2.35518	-0.886892	-0.657027	10.883448	-8.6163552	6.41592
H	-2.28264	1.39488	0.237892	0.072080928	2.7306863999999997	0.65382912
12
Properties=species:S:1:pos:R:3:forces:R:3 energy=-146531.52300000002
C	-0.0963636	1.45479	0.321376	-19.379952	16.89696	-1.10061792
C	1.09885	0.7959	0.058521	-7.1455535999999995	1.5561936	-0.46852271999999995
C	1.07807	-0.526002	-0.353071	-17.532432	-12.4928784	3.9271680000000004
C	-0.152239	-1.20159	-0.494582	-20.458368	1.4811552000000001	-23.564016000000002
C	-1.3722	-0.498797	-0.347682	6.2796816	25.987824	8.1596448
C	-1.35365	0.852707	0.108208	34.599744	-33.594767999999995	-8.9649648
H	-0.0487456	2.51368	0.594229	-2.0491776	-1.39799232	2.8866528
H	2.0317	1.34288	0.111074	6.525705599999999	1.8231263999999998	3.2055552
H	2.0146	-1.00366	-0.570619	10.1339856	-11.7490608	-3.47904
H	-0.25357	-2.20795	-0.952205	11.6098704	8.4385728	10.501272
H	-2.35533	-0.882685	-0.661945	10.028246399999999	-8.956828799999998	5.9235552
H	-2.27821	1.3753	0.232205	-12.6116496	12.007871999999999	2.9732976
12
Properties=species:S:1:pos:R:3:forces:R:3 energy=-146531.2716
C	-0.0946422	1.45256	0.352188	-34.879968	-1.3734676799999999	-14.933663999999998
C	1.09396	0.788796	0.0644606	-10.3912704	21.061007999999998	1.6699824
C	1.06896	-0.513211	-0.373346	-15.959663999999998	-23.718239999999998	1.4078664
C	-0.164907	-1.17291	-0.529501	-12.67128	13.5518976	-11.294121599999999
C	-1.37836	-0.470162	-0.368112	13.715208	7.166808	6.8410944
C	-1.36546	0.845772	0.109812	36.25344	-10.577707199999999	-0.9064195199999999
H	-0.0681918	2.51174	0.550921	0.8873424	10.178452799999999	9.9917712
H	2.00191	1.3772	0.0692168	10.1069712	-1.21892256	4.9432176
H	2.0003	-1.00163	-0.595568	9.492768	-10.4675904	-3.9958415999999994
H	-0.266933	-2.16861	-0.941789	9.775684799999999	-9.174081600000001	-0.19075968
H	-2.33393	-0.892167	-0.668089	-1.23309648	-8.607816	2.3974704
H	-2.31468	1.34208	0.220663	-5.096159999999999	13.1796576	4.0693824
12
Properties=species:S:1:pos:R:3:forces:R:3 energy=-146531.5146
C	-0.0966012	1.45198	0.360159	-34.0956	2.0887632	-16.393248
C	1.09162	0.787901	0.066263	-4.0397904	27.819936	1.6958015999999998
C	1.06469	-0.510937	-0.378958	-2.2061376	-30.273120000000002	-1.9398384000000002
C	-0.169721	-1.16389	-0.540695	-8.067528	15.012576	-7.978032
C	-1.37921	-0.460924	-0.37344	12.5859312	-2.5953552	4.378392
C	-1.36557	0.842211	0.109981	18.3276	6.6513168	3.8574431999999996
H	-0.0734597	2.51965	0.546416	1.00882512	5.0894496	9.85464
H	2.00407	1.38802	0.0612786	3.8249712	-5.952844799999999	5.3862336
H	2.00976	-1.0134	-0.607491	-3.7837439999999996	-2.6776656	-0.64805616
H	-0.261164	-2.16089	-0.936302	7.8641856	-13.0478688	-2.7821664
H	-2.32631	-0.902951	-0.666999	-3.0018527999999995	-6.756768	2.1003408
H	-2.33755	1.34767	0.221551	11.583172799999998	4.6416816	2.4684336
12
Properties=species:S:1:pos:R:3:forces:R:3 energy=-146531.69019999998
C	-0.159316	1.47518	0.41064	31.697279999999996	19.775232	6.321542399999999
C	1.04307	0.823635	0.0784772	17.503776	-10.1812032	2.1421872
C	1.01212	-0.485818	-0.456054	21.76776	12.4725024	-5.3703936
C	-0.209631	-1.06651	-0.738519	-14.0198976	-25.57728	5.5178064
C	-1.4045	-0.41394	-0.459392	-13.62204	18.637056	18.487152
C	-1.35984	0.877556	0.140584	-41.913936	-7.5942432	-11.4043104
H	-0.150226	2.4739	0.902267	3.177504	-13.0941072	-8.7723792
H	2.02914	1.29309	0.272393	-12.8806992	-3.0682799999999997	-0.43577711999999996
H	1.92336	-1.08601	-0.711808	-11.5444368	18.097344	8.7134544
H	-0.232165	-2.12658	-1.03448	-1.25419536	7.5007152	-5.3896464
H	-2.37328	-0.926921	-0.563762	6.9182352	4.4980991999999995	-4.865371199999999
H	-2.28034	1.48484	0.373208	14.1706224	-21.465792	-4.9442688
12
Properties=species:S:1:pos:R:3:forces:R:3 energy=-146532.135
C	-0.158634	1.47699	0.411047	28.455119999999997	17.12952	6.563505599999999
C	1.04195	0.823678	0.0782251	15.415344	-9.4667472	3.3438816
C	1.01143	-0.48263	-0.457846	17.254224	11.5575696	-5.850604799999999
C	-0.210105	-1.06583	-0.744214	-15.845183999999998	-26.09856	5.3698896
C	-1.40634	-0.413417	-0.461106	-12.936772799999998	19.945151999999997	18.685008
C	-1.3617	0.879447	0.141249	-35.210448	-10.92744	-12.54564
H	-0.151833	2.46705	0.91693	3.60216	-11.8278144	-9.1363536
H	2.02363	1.28781	0.284945	-10.247544	-1.9958399999999998	-0.66312864
H	1.91837	-1.07876	-0.70958	-7.9963776	15.750143999999999	7.6107312
H	-0.238696	-2.12829	-1.04693	-0.22220784000000002	10.4987664	-4.1838336
H	-2.37931	-0.921187	-0.562856	7.9620912	4.1598	-5.0805792
H	-2.27492	1.48054	0.378466	9.7694496	-18.724463999999998	-4.112928
12
Properties=species:S:1:pos:R:3:forces:R:3 energy=-146532.8882
C	-0.201675	1.48778	0.492483	22.523039999999998	8.1946368	5.7490272
C	0.988119	0.81745	0.159805	3.683088	-13.3794288	-18.830736
C	0.919032	-0.365527	-0.630393	33.478848	9.0067824	18.017424
C	-0.296542	-0.9059	-0.97465	2.5683263999999997	-24.765839999999997	-23.228351999999997
C	-1.45413	-0.308057	-0.552024	-32.631984	12.8067552	1.9789343999999998
C	-1.40592	0.900247	0.160004	-29.940048	-5.143032	5.743180799999999
H	-0.172927	2.47434	0.993834	0.15260975999999998	-12.429100799999999	-1.32538896
H	1.97689	1.19702	0.440432	-4.8662208	2.4464592	-0.088114464
H	1.82443	-0.935186	-0.937749	-7.1819711999999996	14.841216000000001	6.1242912
H	-0.320022	-1.79764	-1.63169	-1.8959903999999999	7.0714224	9.6137712
H	-2.4276	-0.742151	-0.829066	5.2660656	3.1358447999999997	4.079030400000001
H	-2.35134	1.34758	0.523385	8.844119999999998	-1.785744	-7.8330384
12
Properties=species:S:1:pos:R:3:forces:R:3 energy=-146529.933
C	-0.205952	1.48039	0.52475	0.14026032	-27.501696	-19.139328
C	0.976937	0.789465	0.16385	-1.5451056	26.793072000000002	-3.2472864
C	0.920092	-0.334477	-0.646144	-13.5273744	-4.528051199999999	2.813112
C	-0.299563	-0.85631	-1.02433	-18.150624	-11.8531728	-1.9289376
C	-1.47302	-0.28444	-0.584842	-14.633856	20.165904	13.699180799999999
C	-1.42899	0.897377	0.177843	20.789856	-8.758555199999998	-8.4972528
H	-0.254849	2.48226	0.922434	11.4003936	5.2764912	12.5613072
H	1.93368	1.24824	0.370279	9.0046368	1.6237583999999998	5.4067392000000005
H	1.71993	-0.900089	-1.057	33.97824	0.048929903999999996	0.89009424
H	-0.368551	-1.74112	-1.64959	4.2170976	-4.1827104	-3.7207871999999997
H	-2.43707	-0.703038	-0.843015	-6.1097904	-3.9999887999999997	-3.2731776
H	-2.30436	1.42838	0.458832	-25.563744	6.915959999999999	4.43628
12
Properties=species:S:1:pos:R:3:forces:R:3 energy=-146533.8926
C	-0.241344	1.39632	0.606754	-12.1984848	-2.0610288	2.5825392
C	0.944024	0.827617	0.134166	-18.22392	-4.381012800000001	3.0844512
C	0.891429	-0.237173	-0.760388	-24.588144	0.28028159999999996	-7.8700608
C	-0.370158	-0.718253	-1.19797	2.9340144	6.1533071999999995	2.0739456
C	-1.5627	-0.148764	-0.697088	8.6067792	6.4439136	-5.3503776
C	-1.5152	0.935826	0.19435	47.433887999999996	-16.704288	-8.554161599999999
H	-0.150136	2.18445	1.34972	-4.158648	5.971161599999999	0.8605079999999999
H	1.8752	1.21082	0.512626	12.9964896	2.7901439999999997	0.9951508799999998
H	1.81219	-0.633186	-1.15061	8.691091199999999	-9.0621792	-5.8047984
H	-0.436571	-1.49455	-1.97802	2.3475311999999997	3.0489696	8.785584
H	-2.53257	-0.490835	-1.06008	0.2284776	-3.4742736	-0.40298399999999995
H	-2.39394	1.39652	0.559646	-24.069024	10.995047999999999	9.600206400000001
12
Properties=species:S:1:pos:R:3:forces:R:3 energy=-146530.1696
C	-0.292691	1.36163	0.702013	29.075616	5.030784	6.7040064
C	0.884578	0.852425	0.134933	14.515632	-25.328304	-15.057504000000002
C	0.807455	-0.15493	-0.891484	32.596703999999995	21.863808	38.360592
C	-0.432035	-0.591913	-1.30665	21.206448	-10.7952912	-17.50248
C	-1.57875	-0.0155679	-0.817509	-13.8577392	-7.8670512	-0.70968672
C	-1.49433	0.934662	0.191241	-57.856608	-0.2194488	15.386112
H	-0.250015	2.01848	1.5829	-0.39773664	-1.06308432	-7.375247999999999
H	1.90075	1.06908	0.526429	-15.204095999999998	4.971369599999999	-2.3097456
H	1.7646	-0.657715	-1.18393	-19.518912	9.8910432	-1.19506464
H	-0.432708	-1.42543	-1.99498	-8.9570736	-5.4036288	-8.7797088
H	-2.5267	-0.425885	-1.16955	-4.300631999999999	6.1411248	3.7319184
H	-2.46944	1.20872	0.689287	22.698576	2.778768	-11.2530816
12
Properties=species:S:1:pos:R:3:forces:R:3 energy=-146531.90840000001
C	-0.578878	0.848305	0.802563	25.096895999999997	-18.099216000000002	-23.139072000000002
C	0.603397	0.68541	0.0298164	-19.992672000000002	-4.3794576	-7.554124799999999
C	0.516528	0.566739	-1.36329	-39.1248	5.4610848	-6.4422576000000005
C	-0.750279	0.605756	-2.03392	19.968192000000002	9.6215328	34.534512
C	-1.90074	0.792321	-1.23632	4.349923199999999	-1.3421404799999999	-16.837488
C	-1.8175	0.875659	0.157552	29.140272	3.6530064	-3.119976
H	-0.498222	0.786229	1.88077	-2.6849664	6.9086736	7.0618752
H	1.57723	0.558794	0.478992	6.8050944	3.9794832	9.0472896
H	1.38048	0.48258	-1.98913	18.508176	-4.1290992	-4.6264032
H	-0.750763	0.569116	-3.12816	-7.3053792	-1.4370264	4.232232
H	-2.86242	0.896294	-1.73413	-4.9497696	-2.3469552	0.6444
H	-2.64456	0.999719	0.808187	-29.810736	2.1101759999999996	6.199056
12
Properties=species:S:1:pos:R:3:forces:R:3 energy=-146530.578
C	-0.580838	0.77603	0.784601	-19.064592	7.210382399999999	-13.8903696
C	0.577666	0.639278	0.0053913	-27.021024	1.3393943999999998	-14.2863264
C	0.458445	0.60989	-1.40277	9.3040272	11.676369600000001	22.610304
C	-0.763378	0.765459	-2.03385	-8.315827200000001	-8.2473984	-12.1997664
C	-1.91321	0.822207	-1.27035	-8.240472	8.308339199999999	23.867856
C	-1.84416	0.872878	0.134562	32.237712	-2.93256	-21.168575999999998
H	-0.520697	0.922812	1.85755	1.2986913599999999	-2.4606288000000003	5.9107392
H	1.55993	0.670726	0.444469	9.4308912	-4.3742016	6.9615216
H	1.38305	0.637934	-1.93558	14.481648	-3.8362319999999994	-17.084304
H	-0.907317	0.868044	-3.11179	11.395396799999999	-4.0616928	-1.7768879999999998
H	-2.89229	0.954594	-1.72607	-1.38058128	-0.42933744	-4.705272
H	-2.77274	1.13519	0.583816	-14.125852799999999	-2.1924144	25.761024
12
Properties=species:S:1:pos:R:3:forces:R:3 energy=-146530.36080000002
C	-0.580753	0.774451	0.78372	-20.479968	7.930972799999999	-13.2457104
C	0.576306	0.638309	0.00468706	-25.093728	1.5246	-13.9800528
C	0.457574	0.611227	-1.40383	9.3378384	11.4129648	24.047712
C	-0.763363	0.768485	-2.03366	-9.1549728	-8.483616	-11.9629728
C	-1.91392	0.823055	-1.27105	-7.370136	8.307201599999999	25.026048
C	-1.84439	0.873163	0.13469	34.626816	-4.079851199999999	-23.936111999999998
H	-0.522853	0.926174	1.85608	1.660032	-2.7507167999999997	6.0079104
H	1.55867	0.672615	0.446581	8.5942368	-4.5748944	6.2102304
H	1.3817	0.63882	-1.93496	15.391439999999998	-3.7098288	-17.728704
H	-0.907322	0.872102	-3.10988	11.3015376	-3.9152016	-3.0674592
H	-2.8924	0.955012	-1.72642	-1.8608544	-0.30981312	-4.9443984
H	-2.77101	1.13374	0.58015	-16.952256	-1.3518215999999998	27.573552
12
Properties=species:S:1:pos:R:3:forces:R:3 energy=-146529.5936
C	-0.58126	0.762585	0.776268	-29.424672	13.584038399999999	-4.6136736
C	0.564686	0.630835	-0.00146007	-5.0578416	3.3231167999999998	-8.902627200000001
C	0.451296	0.622222	-1.41085	17.760095999999997	9.3430512	27.06264
C	-0.763795	0.791701	-2.03274	-14.2851024	-10.1812752	-9.574214399999999
C	-1.91975	0.830101	-1.27518	-2.5189056	8.641296	29.46096
C	-1.84429	0.875088	0.134261	35.79336	-8.3200752	-34.60896
H	-0.53827	0.950383	1.84792	3.9816576	-5.501923199999999	3.3391583999999996
H	1.55239	0.684366	0.465565	-1.519272	-6.311448	-1.4174668799999999
H	1.38052	0.643688	-1.94096	12.3286032	-2.914128	-16.029792
H	-0.900834	0.901718	-3.0984	9.7597008	-2.7294912	-11.641176
H	-2.8949	0.95823	-1.73233	-3.7030752000000002	0.32732495999999994	-5.348015999999999
H	-2.77002	1.12236	0.569565	-23.114592000000002	0.73950624	32.273136
12
Properties=species:S:1:pos:R:3:forces:R:3 energy=-146533.46240000002
C	-0.652776	0.72116	0.701455	7.586956799999999	-14.979024	2.4239808
C	0.514242	0.587481	-0.0656551	-17.20152	10.8274896	-18.455472
C	0.450009	0.779142	-1.45847	-13.276555199999999	-6.3957168	15.95448
C	-0.795945	0.985411	-2.06264	-13.3438752	0.6547031999999999	-9.5923152
C	-1.98452	0.982221	-1.30859	4.329878399999999	-0.6879686399999999	28.737936
C	-1.90967	0.862538	0.111985	9.549144	1.24645248	-21.6432
H	-0.576371	0.557176	1.77386	-1.3827556799999998	1.9697904	4.7677536
H	1.44741	0.305048	0.382387	12.7057824	0.9542232	9.315993599999999
H	1.34272	0.675592	-2.05383	8.0815248	1.43686656	-7.116105599999999
H	-0.873592	1.10297	-3.15719	2.582784	-1.04581584	8.1264384
H	-2.97773	1.04853	-1.75666	3.3980832	2.0118815999999997	-5.8306895999999995
H	-2.78336	0.812814	0.766559	-3.0294432	4.0071167999999995	-6.688814399999999
12
Properties=species:S:1:pos:R:3:forces:R:3 energy=-146531.8382
C	-0.64942	0.71868	0.696267	-9.0946512	-20.37168	4.85748
C	0.515917	0.588265	-0.0708789	-17.411616000000002	8.7026688	-18.196848
C	0.444531	0.793298	-1.46534	-15.623424	-6.550848	26.26992
C	-0.79827	0.998705	-2.06465	-19.392192	2.6800127999999996	-4.5955296
C	-1.98862	1.00145	-1.31398	9.8611488	-4.2571872	40.638816
C	-1.92443	0.858275	0.114486	39.202127999999995	6.403478399999999	-48.354192
H	-0.601018	0.482081	1.75857	1.6470719999999999	4.467528	4.5001584
H	1.44259	0.250708	0.37005	7.992100799999999	4.340015999999999	6.707779199999999
H	1.33871	0.692327	-2.03485	16.129296	0.28135583999999997	-15.779376
H	-0.910375	1.11573	-3.14518	6.4699488	-0.068407488	-0.7410096
H	-2.97688	1.06703	-1.75816	-0.6768907200000001	2.4188976	-8.566272
H	-2.80791	0.801171	0.701625	-19.102895999999998	1.9541520000000001	13.2591024
12
Properties=species:S:1:pos:R:3:forces:R:3 energy=-146530.521
C	-0.647234	0.71518	0.692326	-20.98368	-25.345295999999998	10.4427936
C	0.516089	0.589528	-0.0764827	-10.1573712	3.5101152	-11.9930976
C	0.438947	0.804547	-1.46924	-4.9357152	-7.534958399999999	22.691088
C	-0.801554	1.0099	-2.06665	-21.568464	3.7776384000000003	1.07385408
C	-1.99134	1.01708	-1.31561	10.838793599999999	-6.3695088	42.917904
C	-1.93403	0.855182	0.113256	45.598464	9.5514912	-54.436464
H	-0.620147	0.423673	1.74953	3.8318255999999997	7.464009599999999	-0.05424048
H	1.44526	0.209444	0.365478	-2.3006447999999997	9.8893296	1.13041296
H	1.34803	0.706557	-2.03173	9.0811728	0.77708448	-13.3909344
H	-0.935517	1.12621	-3.13554	8.533368	0.84987792	-8.3522592
H	-2.97642	1.08437	-1.76646	-0.9463291199999999	2.4167520000000002	-8.096616
H	-2.84296	0.793323	0.657711	-16.991424	1.01346768	18.067392
12
Properties=species:S:1:pos:R:3:forces:R:3 energy=-146532.64140000002
C	-0.738392	0.510638	0.62228	32.720544000000004	11.1206304	-2.5453584
C	0.427764	0.600589	-0.138638	5.340441599999999	4.1321664	-21.763727999999997
C	0.370685	0.919584	-1.51269	-0.17719487999999997	-9.7781904	27.186336
C	-0.853448	1.18559	-2.08532	-9.498945599999999	6.8382287999999996	-27.935424
C	-2.01279	1.19675	-1.33233	-13.2504768	-8.6780736	29.303424
C	-1.92653	0.851019	0.0412635	-26.637839999999997	3.212208	-17.7228
H	-0.661969	0.330265	1.68352	-1.6847568	-6.135624	8.972726399999999
H	1.39456	0.47711	0.310081	12.903307199999999	-6.7643856	8.465126399999999
H	1.23577	0.938008	-2.1533	13.996267199999998	0.30229631999999995	-0.33939216
H	-0.874587	1.3899	-3.16392	-4.2944688	1.6162127999999998	3.8541599999999994
H	-2.99827	1.42861	-1.74398	3.6746064	0.8236224	-3.5409744
H	-2.7865	0.817792	0.699155	-13.091472	3.3109056	-3.9339503999999996
12
Properties=species:S:1:pos:R:3:forces:R:3 energy=-146530.90780000002
C	-0.732411	0.428707	0.587234	-30.336624	33.546096	-6.0201216
C	0.415998	0.603596	-0.174354	0.130388256	-6.35832	15.900912
C	0.345825	0.949194	-1.50996	8.8361424	10.3470192	-25.787232
C	-0.874484	1.27467	-2.12909	-11.0282544	-2.9611728	13.3475472
C	-2.04414	1.25338	-1.32817	8.4361968	1.1692771199999998	-0.21472128
C	-1.96262	0.851805	0.0185794	-13.175496	-5.6672784	4.4528544
H	-0.716079	0.282411	1.66291	5.456577599999999	-8.2249488	3.1074479999999998
H	1.37526	0.57879	0.326165	9.191102399999998	-9.5301072	-0.27029952
H	1.30692	1.0335	-2.04438	-9.696902399999999	1.31829696	-1.7492976
H	-0.94963	1.59783	-3.17773	4.797288	-3.3426288	6.2648928
H	-3.00743	1.61127	-1.72692	7.4690784	-4.2504192	1.12378896
H	-2.8972	0.922279	0.639597	19.920527999999997	-6.0457824	-10.1558592
12
Properties=species:S:1:pos:R:3:forces:R:3 energy=-146530.9364
C	-0.804946	0.442323	0.496837	4.4833824	-22.84056	12.338395199999999
C	0.36825	0.572219	-0.246699	22.644	-13.488912	-0.22356864
C	0.312975	1.08146	-1.55216	31.472064	-6.7361472	-2.6156447999999997
C	-0.894761	1.437	-2.08341	-33.467327999999995	23.290128	-15.591024
C	-2.06749	1.38473	-1.34116	-14.624496	-17.696736	35.542367999999996
C	-2.02073	0.819018	-0.033337	-25.039872000000003	13.2749856	-10.825992
H	-0.834338	-0.12664	1.44617	8.5060224	10.9399824	-5.704041599999999
H	1.30767	0.135005	0.157521	-9.810921599999999	11.6216352	-5.0139792
H	1.1729	1.19824	-2.25169	-3.8009952000000005	-7.1040672	20.355264
H	-0.960191	1.8338	-3.09466	2.9050847999999996	0.5515416	-4.140936
H	-3.04544	1.70986	-1.70296	3.9470832000000002	0.10140825599999999	-7.566609599999999
H	-2.9327	0.639129	0.593383	12.7860192	8.0867664	-16.554095999999998
12
Properties=species:S:1:pos:R:3:forces:R:3 energy=-146531.8786
C	-0.806172	0.438366	0.483472	-8.9064144	-7.3615104	-12.2603616
C	0.356645	0.562411	-0.276108	3.7870415999999993	-11.246515200000001	16.925616
C	0.319296	1.10247	-1.54598	5.203771199999999	-2.7335952	-18.026495999999998
C	-0.898797	1.47321	-2.07491	-28.051344	20.5812	-11.8801008
C	-2.08374	1.39816	-1.32635	-5.3726975999999995	-7.961759999999999	2.2753584
C	-2.03146	0.822498	-0.0503918	-16.283807999999997	1.5015311999999998	8.3192544
H	-0.856168	-0.118918	1.40628	10.5770016	-1.1818209599999998	11.5033392
H	1.24476	0.0980218	0.117456	15.382368	1.7488511999999998	3.4572096
H	1.16456	1.16403	-2.23916	5.8057056	-2.7284688	10.8864288
H	-0.954783	1.85385	-3.10243	1.184616	-0.15564672	3.4314048
H	-3.05513	1.70135	-1.74192	6.9205103999999995	-1.33249536	-1.05684768
H	-2.93668	0.583471	0.558359	9.753264	10.8702288	-13.5748224
12
Properties=species:S:1:pos:R:3:forces:R:3 energy=-146530.70859999998
C	-0.826367	0.414742	0.436824	-1.7484768	-13.591224	15.500016
C	0.337628	0.517705	-0.317951	13.2599808	1.5972192	8.81028
C	0.322991	1.1534	-1.55761	-7.26624	-12.595593599999999	-10.9451664
C	-0.933704	1.58985	-2.06042	23.659488	-5.2351344	-1.03981968
C	-2.11909	1.42886	-1.30985	17.92872	7.911979199999999	-42.069888
C	-2.05991	0.829758	-0.0801309	-22.455504	-16.972127999999998	30.471696
H	-0.75704	-0.0861032	1.41842	-5.2507584000000005	3.7146384	-7.7643216
H	1.27883	0.0658507	0.0501358	-9.292521599999999	6.913872	-0.7781068800000001
H	1.28007	1.08418	-2.13262	-21.509136	12.332793599999999	1.12272624
H	-0.957622	1.9417	-3.09458	-4.7370816	5.3097264	2.2564656000000003
H	-3.04672	1.67247	-1.83112	-3.7484063999999995	1.41098832	7.800105599999999
H	-3.02407	0.565974	0.43307	21.16008	9.202881600000001	-3.3640271999999998
12
Properties=species:S:1:pos:R:3:forces:R:3 energy=-146530.6392
C	-0.831213	0.408736	0.43113	2.2229136	-9.7323408	10.0471536
C	0.337503	0.509236	-0.320012	1.41952032	12.6639792	-4.4941536
C	0.320312	1.15996	-1.56279	-9.0276192	-16.168895999999997	0.16059024
C	-0.936752	1.60783	-2.05763	25.687151999999998	-6.2679599999999995	-6.5786831999999995
C	-2.12082	1.4349	-1.31539	13.7421504	4.5201312	-32.817744000000005
C	-2.06418	0.828604	-0.0803039	-25.998768	-13.820947199999999	23.281632
H	-0.740234	-0.0714978	1.40764	-7.4247696	-1.25129664	0.55515456
H	1.27654	0.0776141	0.0374072	-2.2090175999999997	1.8643824	3.3528528
H	1.28285	1.09152	-2.11876	-19.606752	13.1706864	-2.6919215999999997
H	-0.968299	1.96713	-3.0929	-3.580992	4.5646704	4.8114288
H	-3.05678	1.67066	-1.83243	-0.79946208	1.6820928	8.339731200000001
H	-3.04189	0.57596	0.426179	25.575552	8.775431999999999	-3.9660047999999994
12
Properties=species:S:1:pos:R:3:forces:R:3 energy=-146530.7942
C	-0.835275	0.40323	0.426663	4.599187199999999	-5.9118192	4.1333904
C	0.337474	0.502463	-0.321911	-9.8116272	21.627504000000002	-15.060672
C	0.317676	1.16496	-1.56722	-14.2438608	-18.220896	10.7215344
C	-0.938382	1.62295	-2.05548	25.671024	-7.0954272	-10.2933072
C	-2.12177	1.44023	-1.32139	10.4972544	0.43656767999999996	-22.214304000000002
C	-2.06879	0.82709	-0.0795571	-21.2868	-8.821123199999999	12.4975008
H	-0.729186	-0.0594647	1.39848	-8.539430399999999	-5.578632	8.282174399999999
H	1.27341	0.0886364	0.0279551	5.0508	-2.6444159999999997	6.981134399999999
H	1.27638	1.10373	-2.10808	-13.346049599999999	13.1556528	-7.656624
H	-0.979061	1.99094	-3.08938	-2.1544128	4.0861296000000005	6.0060528
H	-3.06582	1.66989	-1.8298	1.16327232	2.2552704	7.846790400000001
H	-3.04576	0.588445	0.418588	22.400495999999997	6.7111344	-1.2437841600000001
12
Properties=species:S:1:pos:R:3:forces:R:3 energy=-146531.65
C	-0.925119	0.248248	0.258713	-13.690137599999998	-1.6556832	-1.04416848
C	0.220547	0.50256	-0.475074	22.321295999999997	-16.441056	11.097518399999998
C	0.215348	1.31906	-1.58552	14.524272	12.1094784	-20.804256
C	-0.988328	1.89396	-2.03552	1.606176	13.0499712	-0.895356
C	-2.17224	1.62941	-1.34812	8.0340912	-3.770064	20.370527999999997
C	-2.11811	0.824131	-0.201613	-32.508432	-10.608523199999999	17.755488
H	-0.860215	-0.399201	1.14507	-6.2950896	5.1152256	-4.5518832
H	1.17597	0.0350204	-0.183855	-6.5419488	4.207896	1.0402804799999998
H	1.22583	1.48231	-2.03571	-22.830624	4.343659199999999	-2.8172447999999997
H	-1.05594	2.65485	-2.81987	9.5318928	-6.576796799999999	-4.5804528
H	-3.11935	2.13011	-1.5586	2.4175872	-1.5385103999999998	-8.6444496
H	-3.09645	0.649223	0.33248	23.43096	1.76436	-6.9260256
12
Properties=species:S:1:pos:R:3:forces:R:3 energy=-146532.2274
C	-0.956279	0.212071	0.198935	-13.6189296	12.894264	-13.9572
C	0.22739	0.496411	-0.514162	-3.3447312	-15.289632	27.804384
C	0.222611	1.37067	-1.57704	-35.775504	18.931824	-31.738176
C	-0.990855	1.96125	-2.03703	-12.755246399999999	-12.8302128	29.705903999999997
C	-2.18503	1.70697	-1.30794	9.5549328	-7.3310112	-5.8564368
C	-2.18076	0.820135	-0.218058	52.617744	-4.656787199999999	-7.387142399999999
H	-0.935168	-0.480852	1.05485	-1.24072272	4.344984	-7.221859199999999
H	1.1452	-0.0108675	-0.192375	-0.37317311999999997	4.6946736	-3.2557679999999998
H	1.077	1.57621	-2.18765	20.805263999999998	-0.5840323199999999	-3.0820752
H	-1.07215	2.57781	-2.93663	8.5468464	0.45765072	3.0189023999999995
H	-3.1431	2.13464	-1.62133	3.6037008	0.9209851199999999	-1.9998288000000002
H	-3.06491	0.522116	0.275932	-28.020239999999998	-1.5526943999999998	13.9691664
12
Properties=species:S:1:pos:R:3:forces:R:3 energy=-146532.672
C	-1.01753	0.178371	0.0582208	8.689089599999999	-17.843904000000002	20.873231999999998
C	0.199219	0.506875	-0.557336	0.21343104	6.2785728	-11.064974399999999
C	0.181197	1.45222	-1.62184	20.615472	-27.347472	23.961312
C	-1.0184	2.04148	-1.9646	4.3701264	10.1353536	-21.687839999999998
C	-2.19216	1.78924	-1.2641	-10.4428656	-6.5362176	-14.452128
C	-2.20787	0.817235	-0.265121	-10.9136016	9.501393599999998	-1.05251904
H	-1.06467	-0.624196	0.82016	5.256215999999999	8.5085424	-5.9309856000000005
H	1.1422	0.00414487	-0.260298	-12.1565088	5.3601263999999995	-3.9382272
H	1.11412	1.6265	-2.18076	-8.3097648	2.8752912	2.492928
H	-1.0208	2.62058	-2.89392	-5.418590399999999	7.0322688	5.7871152
H	-3.11647	2.21233	-1.66505	-1.34590752	2.8427903999999997	7.3100448
H	-3.16109	0.568761	0.230806	9.442958399999998	-0.80671824	-2.2979808
12
Properties=species:S:1:pos:R:3:forces:R:3 energy=-146532.61140000002
C	-1.25824	0.0450374	-0.505146	2.2513248	27.934704	-7.6787136
C	-0.0344847	0.51698	-1.0303	-19.673712	-14.700816	13.1080608
C	0.0349695	1.76052	-1.62734	1.7125344	25.233984	-2.2828608
C	-1.11527	2.58396	-1.69105	19.374336	-11.5211232	-4.7215584
C	-2.32042	2.09447	-1.1875	5.1192288	40.566096	-16.51392
C	-2.40371	0.877198	-0.591112	-2.7852192000000002	-46.829232000000005	29.319263999999997
H	-1.25772	-0.877243	0.0446006	-5.292633599999999	-13.0766256	5.0995296
H	0.872372	-0.0580073	-0.874314	3.4639488	-5.2282079999999995	-2.7857088
H	1.03504	2.10894	-1.92754	-9.1914912	3.4624224	-3.6038303999999997
H	-1.07103	3.60045	-2.09042	2.0404368	-2.7458784	-1.6963056
H	-3.16717	2.77028	-1.23058	-8.8730496	0.066574512	1.7780688
H	-3.34868	0.607499	-0.0712324	11.854324799999999	-3.161952	-10.021968
12
Properties=species:S:1:pos:R:3:forces:R:3 energy=-146532.2076
C	-1.29997	0.0343711	-0.604953	7.1880192	0.30181536	1.0686887999999999
C	-0.102808	0.518261	-1.08527	27.768383999999998	22.788432	-5.8483584
C	0.00114195	1.83374	-1.60878	13.357324799999999	-30.080879999999997	4.8178944
C	-1.11229	2.63616	-1.67418	-18.840096	14.683103999999998	1.03886208
C	-2.32818	2.19508	-1.14416	0.34661664	-43.194672	5.2638912
C	-2.39944	0.845575	-0.639935	-31.656527999999998	45.620208	-0.6546599999999999
H	-1.37224	-0.920649	-0.116079	1.7125199999999998	-14.2809552	1.11642048
H	0.794147	-0.0764385	-0.960004	6.6624191999999995	-4.169304	-3.7454975999999998
H	0.95052	2.24998	-1.95172	2.1828384	-6.6790944	-0.47836224
H	-1.00192	3.61842	-2.13579	-4.8014928	3.5101295999999995	3.1475087999999998
H	-3.22621	2.8012	-1.1347	-2.727288	5.3921664	-1.4797296
H	-3.32382	0.463064	-0.190795	-1.19274192	6.1090272	-4.2466464
12
Properties=species:S:1:pos:R:3:forces:R:3 energy=-146530.7696
C	-1.42616	0.0847008	-0.893585	41.401151999999996	-3.0635855999999997	-0.0047485296
C	-0.1776	0.586142	-1.26518	16.272	-2.5869023999999996	-7.8886224
C	-0.0313374	1.92022	-1.62427	-5.7005568	19.055232	6.7528224
C	-1.14483	2.75876	-1.49183	1.15694064	2.0369952	-13.564368
C	-2.38884	2.26333	-1.08044	-1.0032278399999999	22.285152	-6.0853104
C	-2.49861	0.923835	-0.772957	-40.424544000000004	-30.953808000000002	18.631152
H	-1.4567	-0.959034	-0.637212	-8.3436768	-12.2500368	4.354272
H	0.699258	-0.057722	-1.26544	0.9560995199999999	-5.6064384	-2.8953072
H	0.89152	2.42767	-1.95986	-2.3452272	-16.468127999999997	4.308336
H	-0.987477	3.78855	-1.81772	-9.303537599999999	3.6336816	4.5517248
H	-3.25761	2.92776	-1.05337	1.8629855999999998	-1.06056	3.7579247999999996
H	-3.39742	0.387146	-0.364823	5.4715392000000005	24.978384	-11.917929599999999
12
Properties=species:S:1:pos:R:3:forces:R:3 energy=-146532.5448
C	-1.41934	0.0701229	-0.955377	-24.730848	9.622900799999998	15.993792000000001
C	-0.185537	0.593494	-1.35271	-7.1828639999999995	-5.9551055999999996	9.1371744
C	-0.0502131	1.95939	-1.61401	12.4033248	-3.8739888	0.8839368
C	-1.15142	2.80497	-1.46127	-9.521193599999998	8.123832	-2.607336
C	-2.40386	2.29778	-1.0773	2.0419487999999997	-13.5733968	3.5566128
C	-2.55008	0.920304	-0.806701	-0.68689008	8.34984	1.1483927999999999
H	-1.51749	-0.951659	-0.584872	3.1818671999999997	-3.621096	-7.1789472
H	0.689637	-0.0595837	-1.32456	0.107760384	0.98710272	-5.8202064
H	0.973464	2.2938	-1.85833	-12.6292032	7.267536	-0.34867296
H	-1.09471	3.88603	-1.61286	7.108041599999999	-1.26717696	-2.1734784
H	-3.26422	2.96568	-0.922609	6.735384	-1.9988351999999998	-2.7757872
H	-3.55117	0.60227	-0.408151	23.172624	-4.0616064	-9.8154576
12
Properties=species:S:1:pos:R:3:forces:R:3 energy=-146533.3492
C	-1.45599	0.0785217	-0.976375	6.5945808	-16.458048	-8.1493632
C	-0.210196	0.586761	-1.41213	-6.3101088	19.899936	6.0873552
C	-0.0687534	1.99138	-1.59439	-0.88622496	-8.1594144	-2.8958832
C	-1.17345	2.85988	-1.44156	17.219376	-16.675056	9.696081600000001
C	-2.40076	2.3067	-1.07007	-7.0821504	16.265808	5.3805744
C	-2.56168	0.935605	-0.847218	0.21643343999999998	-0.51223824	1.2439699199999998
H	-1.54244	-1.01826	-0.764714	-1.5590591999999999	19.891872	-4.7007216000000005
H	0.66715	-0.0647979	-1.56603	-9.197784	3.8343599999999998	3.7299887999999997
H	0.925554	2.4003	-1.83041	-6.4957536	-2.2404096	-1.17025344
H	-1.03809	3.94708	-1.47278	-1.16907552	-4.370716799999999	-4.8171744
H	-3.21314	3.0189	-0.852178	-0.41118048	-9.4102848	-4.9571136000000005
H	-3.56093	0.573148	-0.56112	9.0809424	-2.0657520000000003	0.55251936
12
Properties=species:S:1:pos:R:3:forces:R:3 energy=-146531.24240000002
C	-1.77616	0.382716	-1.81838	0.41186592	5.4090576	3.7250064
C	-0.512146	0.914205	-1.95894	5.8478976	8.3734272	-7.561281600000001