12
Properties=species:S:1:pos:R:3:forces:R:3 energy=-146531.12819999998
C	-0.0576266	1.44312	0.1121	29.706767999999997	12.9597696	-11.995430399999998
C	1.16484	0.745095	0.0767776	-1.32464592	-2.0052719999999997	-14.618015999999999
C	1.16517	-0.636061	-0.151097	-13.929768	-14.228136000000001	8.3363904
C	-0.0750497	-1.34457	-0.271922	26.346816	16.021008	13.181587200000001
C	-1.27193	-0.615226	-0.10225	-8.120865599999998	-34.78896	-4.5852768
C	-1.26588	0.762631	0.0350016	0.43329168	23.689296	9.1768608
H	0.0138665	2.54716	0.0563361	-8.414409599999999	-10.3405968	9.4251744
H	2.12613	1.2812	0.0796521	-7.089580799999999	-1.37323584	4.8054239999999995
H	2.12449	-1.18359	-0.128396	-9.226224	3.037968	-6.0501456
H	-0.0112275	-2.44572	-0.391327	-9.856699200000001	14.0097744	0.4862232
H	-2.22076	-1.18028	-0.0589338	6.2214912	6.8737104	-4.3283952
H	-2.14915	1.40496	0.148736	-4.7462832	-13.8552624	-3.8344464
12
Properties=species:S:1:pos:R:3:forces:R:3 energy=-146530.8936
C	-0.0631789	1.46064	0.148932	24.781104	-10.74096	-15.274799999999999
C	1.15024	0.755743	0.0726136	-14.222232	-15.666048	-13.194705599999999
C	1.14243	-0.618871	-0.181703	-31.0896	-0.79478064	6.877584
C	-0.0924301	-1.31797	-0.326107	24.041088	9.229507199999999	19.241136
C	-1.27511	-0.608817	-0.142128	-2.4447023999999997	-3.7641456	2.1875904
C	-1.26387	0.771285	0.0366477	6.584759999999999	3.6790416	8.0175312
H	0.0473217	2.52729	0.15395	-11.651140799999999	17.479439999999997	8.841744
H	2.11212	1.24009	0.108631	7.026695999999999	10.6076016	5.479358400000001
H	2.07511	-1.13586	-0.116028	15.20208	-13.85892	-7.61616
H	-0.100005	-2.40888	-0.365494	0.137263104	0.6240758399999999	-5.5405584
H	-2.22292	-1.12344	-0.0209976	-4.5577727999999995	-5.3371151999999995	-8.1011664
H	-2.19231	1.28665	0.188441	-13.807584	8.542339199999999	-0.9175492799999999
12
Properties=species:S:1:pos:R:3:forces:R:3 energy=-146530.70280000003
C	-0.0505157	1.48577	0.186019	-23.9112	10.8616464	-3.9550175999999997
C	1.12519	0.760751	0.0542378	13.8920544	9.5061024	1.4665824
C	1.09535	-0.602806	-0.217723	28.575504	-6.6747888	0.808164
C	-0.0967952	-1.27371	-0.381981	-17.370863999999997	-34.379568	14.2583328
C	-1.28475	-0.598588	-0.195366	-17.200368	25.049664	8.91756
C	-1.26716	0.789	0.049052	-8.5332384	-11.451009599999999	3.8527775999999996
H	-0.0448206	2.57802	0.393152	0.8173007999999999	-15.212304000000001	-1.619568
H	2.09054	1.26025	0.206032	-3.3524928000000003	-2.221128	-1.31521104
H	2.04592	-1.15452	-0.204045	-4.677192	1.6624368	-4.862923199999999
H	-0.200239	-2.37434	-0.407473	13.690584	8.0860608	-7.9882416
H	-2.2589	-1.10604	-0.0802558	10.0388016	-0.26136143999999994	-10.0931472
H	-2.27195	1.19137	0.214352	8.031124799999999	15.034175999999999	0.53068896
12
Properties=species:S:1:pos:R:3:forces:R:3 energy=-146532.55880000003
C	-0.0562355	1.50676	0.205026	-29.758896	-35.591904	-3.5580384
C	1.1178	0.769417	0.0419143	-1.7787888	11.1810096	9.746323199999999
C	1.08262	-0.597951	-0.23984	11.1883968	8.890632	-4.8916368
C	-0.108735	-1.26283	-0.405872	-15.880895999999998	-10.573113600000001	9.0057168
C	-1.30057	-0.573162	-0.223999	-1.540512	7.7462928	2.3010048
C	-1.27781	0.794495	0.0612438	8.7140448	-0.2049984	0.46087056
H	-0.11595	2.52405	0.555308	8.1263952	11.515435199999999	-1.7411615999999999
H	2.05027	1.26609	0.267297	11.701224	1.29531744	-3.2617008
H	1.99262	-1.16259	-0.317566	15.256656	-4.110278399999999	-0.5424768
H	-0.153584	-2.3438	-0.512529	4.55256	-3.5117135999999998	-5.7765455999999995
H	-2.23984	-1.12104	-0.211424	-4.4484623999999995	0.94943952	-4.162104
H	-2.24041	1.25179	0.229568	-6.1317504	12.4138224	2.4197615999999997
12
Properties=species:S:1:pos:R:3:forces:R:3 energy=-146532.11380000002
C	-0.0692178	1.50903	0.214544	-15.13728	-23.540831999999998	6.5063376
C	1.11356	0.777679	0.0378953	12.834388800000001	14.639904	15.965136000000001
C	1.07947	-0.592526	-0.253484	29.275631999999998	-6.401088	-9.645624
C	-0.120908	-1.26235	-0.415941	-0.6191625599999999	9.776865599999999	6.311159999999999
C	-1.31104	-0.555693	-0.238735	1.38006432	-11.873591999999999	-3.2634575999999997
C	-1.28016	0.796249	0.0680604	-26.89488	30.425472	7.131672
H	-0.126498	2.52172	0.636213	8.1673776	-2.7381744	-9.89208
H	2.06952	1.27427	0.289656	-5.945976	-6.1545744	-8.463355199999999
H	2.02136	-1.18543	-0.384289	-13.4697456	15.23808	4.8261888
H	-0.10313	-2.32557	-0.594478	-3.9728016	-9.757871999999999	-4.0717152
H	-2.23325	-1.12378	-0.304296	-8.805081600000001	3.9740255999999996	-0.6294384
H	-2.25614	1.34313	0.24946	23.187456	-13.588142399999999	-4.7747664
12
Properties=species:S:1:pos:R:3:forces:R:3 energy=-146530.55680000002
C	-0.104431	1.49437	0.246555	33.008688	-21.253968	8.8165728
C	1.11146	0.803863	0.042188	-17.181216000000003	-28.508544	2.4521328000000002
C	1.08973	-0.579209	-0.294078	-34.318512	31.015584	4.6878192
C	-0.14393	-1.25469	-0.438035	19.209168	13.880736	-9.9406944
C	-1.33843	-0.530305	-0.279413	-0.15540048	-10.116388800000001	-6.523286399999999
C	-1.30537	0.82547	0.0892444	19.410624	-18.791712	-8.961235199999999
H	-0.0773906	2.47403	0.699044	-1.4865408	12.8846592	-4.6220256
H	2.06505	1.25436	0.252958	10.0941408	10.5494112	-1.5995376
H	1.99088	-1.10372	-0.489823	23.280912	-11.5096608	-1.11375216
H	-0.0663544	-2.29552	-0.799456	-12.671769600000001	7.2168192	7.185297599999999
H	-2.27534	-1.05039	-0.511255	-0.70038432	5.304268799999999	6.1630848
H	-2.15127	1.42501	0.254371	-38.489616	9.3288528	3.4556112
12
Properties=species:S:1:pos:R:3:forces:R:3 energy=-146530.7484
C	-0.0949119	1.45405	0.328922	-25.563024	9.7008192	-5.4353952
C	1.0982	0.793948	0.059905	-12.551140799999999	4.3708176	-0.061876799999999996
C	1.07692	-0.522509	-0.358033	-26.391168	-11.5211664	5.418576
C	-0.154526	-1.19502	-0.502079	-20.196288	2.49408	-21.872736
C	-1.37401	-0.492816	-0.352802	8.161027200000001	23.684832	8.5811184
C	-1.35827	0.852286	0.108869	48.762432000000004	-36.346464	-9.0127008
H	-0.0531105	2.51018	0.580999	-1.04454144	4.200192	5.553144
H	2.01896	1.34949	0.0994179	12.0033504	3.601152	3.8537711999999997
H	2.00246	-0.995833	-0.573752	19.221695999999998	-16.488576	-5.9157072
H	-0.261919	-2.20002	-0.952803	12.1777056	6.323976	8.9424432
H	-2.35283	-0.880823	-0.665333	7.991006400000001	-9.2997792	5.137531200000001
H	-2.27704	1.35872	0.227253	-22.570848	19.280016	4.8117744
12
Properties=species:S:1:pos:R:3:forces:R:3 energy=-146531.3306
C	-0.128835	1.45545	0.396799	4.1725728	4.27212	-21.490992000000002
C	1.07738	0.803376	0.0773679	-13.130942399999999	-3.0819887999999995	-7.854177599999999
C	1.04457	-0.516691	-0.416259	-10.4105808	22.364351999999997	10.7103024
C	-0.199077	-1.10519	-0.616657	21.626351999999997	-32.582592	-6.289185600000001
C	-1.38136	-0.418153	-0.40766	-12.3539904	-39.494448	-4.8558959999999995
C	-1.36437	0.839348	0.11809	16.771968	22.149216	7.5774528
H	-0.101422	2.52951	0.599922	-0.69797376	-2.8081295999999996	9.4031424
H	2.00019	1.37178	0.068504	7.056792	0.61049232	7.8228
H	1.94754	-1.04943	-0.660674	10.3213296	-4.8688848	-1.4924591999999999
H	-0.189726	-2.17102	-0.92449	-6.8223024	12.599539199999999	-1.6154784
H	-2.29577	-0.978984	-0.63495	-2.8357056	9.385646399999999	2.202912
H	-2.28716	1.36637	0.241498	-13.6974384	11.454696	5.8816224
12
Properties=species:S:1:pos:R:3:forces:R:3 energy=-146532.7998
C	-0.156835	1.48085	0.41196	21.135455999999998	10.0337472	5.908823999999999
C	1.03996	0.823611	0.0777884	9.933940799999998	-8.0654832	5.4841104
C	1.01034	-0.476143	-0.461485	5.7386592	10.6656624	-6.3919296
C	-0.211312	-1.06491	-0.755379	-18.83736	-24.947424	5.5730304
C	-1.41018	-0.412046	-0.464184	-10.371067199999999	22.302432	18.761039999999998
C	-1.36592	0.882983	0.142348	-18.423504	-18.494784	-15.252624
H	-0.154271	2.4513	0.944102	4.3878672000000005	-7.8613488	-8.9301312
H	2.01093	1.27706	0.309612	-3.8629439999999997	0.51033312	-0.72577728
H	1.90722	-1.06152	-0.703766	1.14049296	9.526608000000001	4.7973456
H	-0.25158	-2.12946	-1.07229	1.7607743999999999	14.77512	-2.1191328
H	-2.3896	-0.90907	-0.562082	8.9267904	3.005064	-5.5318608
H	-2.26264	1.46857	0.388123	-1.5291215999999999	-11.449900799999998	-1.5729408
12
Properties=species:S:1:pos:R:3:forces:R:3 energy=-146528.3854
C	-0.140439	1.50834	0.423601	-33.839279999999995	-11.0574432	15.3468
C	1.0211	0.825489	0.0900496	12.1160016	18.906336	27.592128
C	0.980533	-0.410485	-0.514461	13.444776	-44.06328	-22.038192
C	-0.248648	-1.05572	-0.857236	-2.456712	38.7144	18.069119999999998
C	-1.44558	-0.368853	-0.478569	13.2730272	-5.6668176	-10.726344
C	-1.39387	0.890388	0.134792	-8.3518992	15.791183999999998	18.286992
H	-0.103916	2.3487	1.14326	-0.54766368	-1.4656896000000001	-16.25688
H	1.96443	1.2075	0.534053	-6.5186496	-4.1386464	-14.460912
H	1.98523	-0.909774	-0.654736	-26.67528	5.1408432	-3.000384
H	-0.312941	-2.01821	-1.36456	4.6819584	-0.6643497599999999	2.5418591999999998
H	-2.43457	-0.813644	-0.648146	5.735736	-1.495728	-1.5492528
H	-2.36653	1.34718	0.521137	29.137824	-10.0008	-13.8049056
12
Properties=species:S:1:pos:R:3:forces:R:3 energy=-146528.6336
C	-0.166226	1.50556	0.44522	-3.6253007999999998	-17.69256	6.3407376
C	1.01219	0.841285	0.127518	-19.393776	-34.515072	-15.408719999999999
C	0.954873	-0.401727	-0.575074	-24.753888	27.553392	20.201327999999997
C	-0.28193	-1.00609	-0.908188	22.151232	22.961375999999998	1.5158592
C	-1.45215	-0.336299	-0.497442	10.8153504	-12.6649584	-21.00888
C	-1.40175	0.8974	0.139131	32.798736	-12.3284736	0.67206096
H	-0.0649966	2.34945	1.10741	-9.1072944	14.989104000000001	1.7057664
H	1.95699	1.15668	0.53443	11.354112	9.257644800000001	-1.5560064
H	1.90953	-0.839474	-0.698109	20.903472	-22.58712	-14.479488
H	-0.283808	-1.9124	-1.52595	-4.6545552	0.6960715199999999	7.9663248
H	-2.40853	-0.785991	-0.750462	-5.6570832	-0.5341895999999999	2.9312064
H	-2.31584	1.23846	0.52063	-30.831120000000002	24.864624	11.119881600000001
12
Properties=species:S:1:pos:R:3:forces:R:3 energy=-146530.75040000002
C	-0.192154	1.49346	0.470897	24.99696	12.3104592	15.863327999999997
C	0.996252	0.833592	0.151161	12.037536000000001	-29.871215999999997	-19.131839999999997
C	0.926509	-0.383681	-0.613621	42.382799999999996	14.666687999999999	23.379407999999998
C	-0.294527	-0.947585	-0.947329	16.504704	6.2349552	-6.413976
C	-1.45119	-0.319479	-0.52822	-14.687712	2.9355984	-8.6954976
C	-1.39633	0.899462	0.148575	-50.381567999999994	0.9311270400000001	17.594496
H	-0.109968	2.43365	1.04746	-7.8107472	-8.195299200000001	-5.4545183999999995
H	2.00075	1.17451	0.492298	-17.363808	0.9790704	-6.713524799999999
H	1.90177	-0.91543	-0.839162	-25.290143999999998	13.099680000000001	1.30127184
H	-0.290826	-1.81526	-1.58843	-5.9229791999999994	-11.7025632	-1.40069088
H	-2.40871	-0.761492	-0.807633	-2.9038464	1.5408287999999999	4.1800896
H	-2.38452	1.29977	0.548645	28.438848	-2.9292624	-14.508576
12
Properties=species:S:1:pos:R:3:forces:R:3 energy=-146530.0336
C	-0.288669	1.37699	0.681614	29.351519999999997	-10.0548	-9.6679728
C	0.900772	0.849441	0.126893	-6.9114816	-22.692816	-8.3391408
C	0.823159	-0.17707	-0.865988	9.1824912	28.830672	39.434976
C	-0.405905	-0.621374	-1.26321	-5.2083791999999995	-12.4376256	-27.694368
C	-1.56417	-0.0587783	-0.788534	-12.3309792	12.286915200000001	7.857647999999999
C	-1.49761	0.945693	0.188453	-0.43216271999999994	-26.632224	-12.5728992
H	-0.298341	2.01903	1.55027	7.2139536	9.6855552	3.8023055999999995
H	1.87708	1.06431	0.542017	5.113051199999999	8.855568	2.6888256
H	1.67304	-0.740159	-1.20265	18.401616	2.6515008	-3.8129615999999995
H	-0.434597	-1.41099	-2.00952	-4.7288448	-5.2658208	-2.047896
H	-2.50742	-0.434005	-1.16157	-9.8140752	-0.108866592	1.38925008
H	-2.37532	1.22339	0.702271	-29.836655999999994	14.881968	8.9622576
12
Properties=species:S:1:pos:R:3:forces:R:3 energy=-146531.73940000002
C	-0.286391	1.35012	0.719938	6.0152256	0.7897536	-1.1816712
C	0.875269	0.846331	0.13646	3.7778400000000003	-17.070336	-14.60088
C	0.804352	-0.129181	-0.899084	7.234488	14.1920208	25.632144
C	-0.446751	-0.571827	-1.34813	28.781136	-14.1782688	-10.9282896
C	-1.59505	0.0172888	-0.84099	-8.8471728	-23.353344	-5.9005296000000005
C	-1.5086	0.924824	0.197634	-30.162239999999997	12.5371584	16.674624
H	-0.209985	2.01959	1.58642	-4.492123199999999	-1.6788383999999998	-5.0854608
H	1.87124	1.09539	0.508122	-1.9928016000000002	4.8981167999999995	2.0811887999999996
H	1.77984	-0.557541	-1.17722	-11.892196799999999	-2.4559056	-8.398512
H	-0.465453	-1.45506	-2.01466	-5.7665087999999995	12.907512	0.8030548799999999
H	-2.56235	-0.396886	-1.16274	2.8688112	8.3877408	2.4882479999999996
H	-2.4818	1.21514	0.64576	14.475456	5.0244192	-1.5839712000000001
12
Properties=species:S:1:pos:R:3:forces:R:3 energy=-146530.2018
C	-0.276752	1.33442	0.741876	-29.636927999999997	-13.1781168	-21.016368
C	0.864204	0.831641	0.13288	-2.2911119999999996	8.947152	6.776424
C	0.801418	-0.0896944	-0.898796	-29.107439999999997	-11.472105599999999	-9.1387296
C	-0.454169	-0.550079	-1.40607	14.109753600000001	14.734512	23.263056
C	-1.61903	0.0505645	-0.873831	17.701344	-22.913856	5.4273168
C	-1.53674	0.916636	0.212027	38.719008	9.9000864	-2.1817439999999997
H	-0.179915	2.01869	1.57324	-4.916592	4.5713376	6.1924752
H	1.82958	1.15575	0.495635	9.244944	1.18731024	2.2989167999999998
H	1.75764	-0.446141	-1.21856	10.6687296	-14.431247999999998	-15.007536
H	-0.534692	-1.43384	-2.04446	3.1184496	7.6830912	-7.0420608
H	-2.60232	-0.320119	-1.14698	-3.7199231999999993	0.5937148800000001	-7.3901520000000005
H	-2.45717	1.26083	0.595777	-23.890176	14.3780688	17.818416000000003
12
Properties=species:S:1:pos:R:3:forces:R:3 energy=-146528.92580000003
C	-0.278008	1.31991	0.751717	-39.183408	-4.901472	-12.3525648
C	0.85603	0.823296	0.131803	17.096688	29.240063999999997	26.332704
C	0.791979	-0.0647572	-0.900636	-3.402432	-40.771872	-45.432144
C	-0.454554	-0.531172	-1.44089	-2.8388159999999996	32.166432	41.41224
C	-1.63158	0.0668288	-0.895696	19.035216000000002	-16.758288	16.200864
C	-1.54787	0.91451	0.222489	8.7778224	23.87376	4.9607856
H	-0.177332	2.03009	1.57983	-5.3520335999999995	-3.7336175999999996	-1.7649504
H	1.82884	1.20317	0.494902	-5.3693136	-8.181936	-4.9999248
H	1.76657	-0.414482	-1.29792	-14.0613408	-2.4688224	-0.3074832
H	-0.575359	-1.38655	-2.08772	7.973409599999999	-0.90593424	-13.8760704
H	-2.6386	-0.259562	-1.15878	1.9818864	-1.43628336	-9.9022464
H	-2.50091	1.3369	0.614145	15.34248	-6.122044799999999	-0.27116784
12
Properties=species:S:1:pos:R:3:forces:R:3 energy=-146529.8896
C	-0.349638	1.22463	0.766901	-27.724176	3.3487487999999996	-1.5307776
C	0.810602	0.788723	0.110291	13.11732	22.301136	53.222255999999994
C	0.737776	0.0447728	-1.02647	11.3928336	-21.176208	-40.912704
C	-0.519584	-0.239753	-1.56449	-6.2185824	3.8786544	-15.567552
C	-1.69418	0.170268	-0.93527	-2.7223200000000003	4.4050464	-26.603136
C	-1.62275	0.936977	0.197343	-8.9737488	12.115281600000001	44.651664
H	-0.32551	1.80227	1.70677	5.5689984	-3.8889936	-8.982979199999999
H	1.78324	1.04343	0.582167	-9.4056912	-4.1136192	-8.605468799999999
H	1.66966	-0.279622	-1.55394	-16.828704000000002	5.5144079999999995	8.1191664
H	-0.655271	-0.592083	-2.58305	8.7755328	-14.107896	-2.0598479999999997
H	-2.6537	0.0642264	-1.45896	3.5693424	-6.2563104	4.4889696
H	-2.60541	1.25327	0.667943	29.449008	-2.0202624	-6.2195472
12
Properties=species:S:1:pos:R:3:forces:R:3 energy=-146531.01380000002
C	-0.362034	1.21183	0.758944	-21.841056	2.5272576	6.9095808
C	0.796569	0.779692	0.123286	-7.6216752	3.0504528	18.132768
C	0.736931	0.0751203	-1.04969	-20.02968	-5.0915664000000005	-21.21912
C	-0.524627	-0.174945	-1.61287	-24.072336	-7.4580048	-21.716207999999998
C	-1.71827	0.194872	-0.973304	8.3347632	24.198048	15.108912
C	-1.6404	0.943365	0.216782	21.009312	-15.908256	-6.3253728
H	-0.245887	1.72469	1.7125	-4.587624	4.115016	1.4708447999999998
H	1.74014	0.959874	0.601145	14.4324	4.2506352	5.0907024000000005
H	1.65601	-0.224236	-1.51983	7.864228799999999	-6.312988799999999	-10.689624
H	-0.722169	-0.59458	-2.61578	18.635616000000002	-4.9904063999999995	7.306776
H	-2.72896	0.0615547	-1.38392	10.2240864	-7.3417536	-5.8483296000000005
H	-2.58235	1.21224	0.670668	-2.3481648	8.9616384	11.7790848
12
Properties=species:S:1:pos:R:3:forces:R:3 energy=-146530.59
C	-0.404152	1.19357	0.764227	26.976528	2.9393135999999997	26.451936
C	0.772724	0.759839	0.159992	7.455312	-14.372424	-32.922288
C	0.709207	0.130459	-1.11648	-2.108808	9.812851199999999	9.4780944
C	-0.56287	-0.0643109	-1.72237	11.0935872	-13.9386672	17.454527999999996
C	-1.74512	0.276944	-1.01739	3.8304288	-2.5990127999999997	5.0150879999999995
C	-1.65161	0.932002	0.236615	-30.036815999999998	4.2983712	-4.3403616
H	-0.237783	1.65612	1.74749	-13.1388912	1.4256	-3.0206016
H	1.74738	0.864612	0.661901	-7.615828799999999	2.6595215999999997	-3.2402736
H	1.66024	-0.203504	-1.60163	-19.427616	4.135521600000001	5.218113600000001
H	-0.5785	-0.684944	-2.63249	-6.9118704	10.05444	2.3419296
H	-2.73498	-0.057038	-1.37656	9.525599999999999	7.3889423999999995	-1.8274607999999999
H	-2.55956	1.25597	0.837302	20.358287999999998	-11.804428799999998	-20.608704
12
Properties=species:S:1:pos:R:3:forces:R:3 energy=-146530.981
C	-0.441642	1.108	0.824583	13.2681456	1.0354752	12.256012799999999
C	0.705978	0.729808	0.128891	23.517504	-1.2441196799999998	-13.527144
C	0.615864	0.275164	-1.19226	23.249232	-13.397025600000001	-3.5681328
C	-0.626347	0.101678	-1.7968	11.783663999999998	0.75368016	-24.24096
C	-1.76077	0.39985	-1.1011	-21.009456	16.038719999999998	20.182032
C	-1.66384	0.916867	0.19329	-40.910399999999996	-0.77710176	15.08688
H	-0.296823	1.53201	1.83468	-11.265249599999999	-4.8581568	-7.684559999999999
H	1.74311	0.785492	0.525453	-17.500752	4.611297599999999	4.4648928
H	1.56763	-0.00450857	-1.70836	-18.072	5.6193408	4.4078256
H	-0.765171	-0.162218	-2.84127	9.9201024	-7.5493872	-5.0693472
H	-2.76071	0.347094	-1.53904	3.0324527999999997	-5.2525872	-2.8970784
H	-2.66277	1.08912	0.675521	23.986656	5.019897599999999	0.5894568
12
Properties=species:S:1:pos:R:3:forces:R:3 energy=-146531.98440000002
C	-0.502887	0.929883	0.814928	5.6092607999999995	15.493536	18.646848000000002
C	0.682572	0.74856	0.0793126	5.8889664	-6.9516143999999995	-9.9611424
C	0.581036	0.37341	-1.28677	23.927616	15.439104	12.9180384
C	-0.659046	0.314898	-1.89556	-24.188976	-4.9223808	5.0730768
C	-1.83711	0.597388	-1.18416	3.5666496	3.52332	34.064208
C	-1.75996	0.912546	0.221266	-6.812712	-2.9611008	-42.20496
H	-0.490609	1.20637	1.8857	8.4395952	-2.7460368	-8.7613344
H	1.68721	0.927532	0.534349	-18.226656	-7.3552608	-4.715208
H	1.48307	0.240363	-1.92083	-8.5656672	-0.6265368	12.0914928
H	-0.739432	0.00990497	-2.92982	0.35419103999999996	0.15018768	-9.210556799999999
H	-2.81251	0.548096	-1.66993	0.66977568	1.5597936	-1.9178207999999999
H	-2.65522	1.24627	0.783437	9.337881600000001	-10.6030368	-6.0228144
12
Properties=species:S:1:pos:R:3:forces:R:3 energy=-146530.0796
C	-0.532256	0.876655	0.807856	11.4671808	12.468052799999999	-4.1967792
C	0.64343	0.722293	0.0390536	10.3207104	6.5890224	30.004703999999997
C	0.567222	0.485572	-1.31325	-9.2563056	-19.219104	-28.153439999999996
C	-0.712738	0.425807	-1.91387	29.11104	-1.0967472	-4.027464
C	-1.84711	0.714833	-1.18553	-12.183753600000001	-18.350064	-36.789263999999996
C	-1.78542	0.899584	0.15046	4.6435104	3.9405456	65.46816
H	-0.371851	1.0563	1.88423	-12.4100064	-3.52548	-6.8386032
H	1.65422	0.762622	0.517167	-19.071648	-1.5191136	-3.7849247999999998
H	1.47767	0.180555	-1.86508	-10.501272	8.3150496	1.7004384
H	-0.849028	0.0595713	-2.91986	4.8704544	2.936736	-12.8429424
H	-2.80469	0.596195	-1.68335	-6.357816	4.469860799999999	-1.19295504
H	-2.73115	0.954203	0.714764	9.3678192	4.991299199999999	0.65314512
12
Properties=species:S:1:pos:R:3:forces:R:3 energy=-146531.82280000002
C	-0.527158	0.86711	0.792642	-25.887311999999998	4.1539247999999995	5.0401152
C	0.612908	0.711705	0.0360537	-0.27546192	1.3216392000000001	-3.3947855999999996
C	0.537029	0.529821	-1.35009	5.5293551999999995	-11.498256	24.765264
C	-0.704467	0.477091	-1.94256	-23.116608	6.561792	-27.675936
C	-1.87673	0.754659	-1.22172	6.5667456	-10.582343999999999	16.481664
C	-1.78393	0.897101	0.179455	-0.77787792	-7.583169600000001	-23.946048
H	-0.486026	0.932454	1.87374	4.1325840000000005	0.23956271999999998	6.3304272
H	1.52713	0.647772	0.588698	21.122495999999998	0.7114032	0.58300272
H	1.43515	0.238115	-1.86158	10.0901664	1.21527072	-12.859416
H	-0.808451	0.193396	-3.00292	3.5306352	5.6972304000000005	5.2567488
H	-2.8611	0.710725	-1.69918	3.8469744	0.5007585600000001	-0.32609375999999995
H	-2.70857	0.855179	0.737783	-4.7616192	9.2621808	9.7451712
12
Properties=species:S:1:pos:R:3:forces:R:3 energy=-146532.02659999998
C	-0.584461	0.838491	0.803813	26.464896	-17.548416	-21.787632
C	0.602456	0.677965	0.0251234	-11.3992272	-5.0324256	1.5695568
C	0.508417	0.571604	-1.3648	-30.559967999999998	8.5918896	-18.644544
C	-0.757819	0.634842	-2.04163	23.606351999999998	5.0956272	43.389503999999995
C	-1.90126	0.796791	-1.23794	1.9977119999999997	0.73998576	-22.398048
C	-1.82611	0.872356	0.146774	32.745024	5.497415999999999	12.032568
H	-0.482444	0.795778	1.88952	-5.85468	6.6783744	0.42021072
H	1.60952	0.570768	0.458729	-9.796896	4.649687999999999	4.4716607999999995
H	1.38879	0.527289	-1.99277	9.7213392	-4.4890848000000005	0.06508627199999999
H	-0.781253	0.63496	-3.12513	-4.44096	-2.4558048	-4.167921600000001
H	-2.85993	0.913409	-1.73204	-7.3304928	-1.7698752	-0.8158694400000001
H	-2.66638	1.04629	0.775788	-25.153056	0.042623568	5.865523199999999
12
Properties=species:S:1:pos:R:3:forces:R:3 energy=-146531.798
C	-0.806047	0.43875	0.484364	-8.2090944	-8.390519999999999	-10.7506512
C	0.357278	0.563168	-0.274332	5.2092576	-11.6114112	16.098912
C	0.318715	1.10115	-1.54623	7.998263999999999	-2.9784816	-17.913312
C	-0.898226	1.47066	-2.07531	-29.091456	21.1032	-12.559737599999998
C	-2.0826	1.39741	-1.32745	-6.3775008	-8.6760144	4.6612512
C	-2.03053	0.822225	-0.0493325	-18.455039999999997	2.0380176	7.880616
H	-0.85597	-0.119796	1.40824	10.6232256	-0.43422767999999995	10.4951232
H	1.24809	0.0997231	0.120022	13.819982399999999	2.4952031999999997	2.8679183999999998
H	1.16507	1.16677	-2.24191	4.4880048	-3.1178304	12.316118399999999
H	-0.95537	1.85259	-3.1021	1.39034736	-0.23289984	3.2097168
H	-3.05532	1.70202	-1.73903	7.1485632	-1.3382236799999998	-1.42916688
H	-2.93818	0.58576	0.562684	11.455502399999999	11.1431232	-14.876783999999999
12
Properties=species:S:1:pos:R:3:forces:R:3 energy=-146532.1124
C	-0.808484	0.433848	0.472635	-14.2059312	-3.060864	-16.117487999999998
C	0.350013	0.553438	-0.293113	-0.4621968	-10.6867872	25.707311999999998
C	0.325079	1.11617	-1.54496	-22.551264	-0.61899408	-16.173360000000002
C	-0.907039	1.50187	-2.07144	-13.234406400000001	12.7080144	-2.0824272
C	-2.09596	1.40559	-1.31524	7.837228799999999	-0.62354016	-21.559392
C	-2.04195	0.825419	-0.0608201	13.9421664	-1.2513024	7.078708799999999
H	-0.84711	-0.112543	1.39997	8.9158752	-3.0574799999999995	11.9841984
H	1.22962	0.080161	0.0953879	19.144512	-0.55292544	4.9502592
H	1.17007	1.13346	-2.20355	17.263008	1.26229968	-3.999672
H	-0.948108	1.86759	-3.10208	-1.47888	1.9387439999999998	2.3687424
H	-3.04705	1.69296	-1.77248	1.07145072	-0.37250496	1.7097263999999999
H	-2.91795	0.569372	0.503745	-16.241472	4.315334399999999	6.133377599999999
12
Properties=species:S:1:pos:R:3:forces:R:3 energy=-146531.5664
C	-0.869397	0.334525	0.392136	-6.2274528	16.953695999999997	-26.842751999999997
C	0.309615	0.483303	-0.38534	-26.590895999999997	4.9761071999999995	14.451696
C	0.255959	1.19214	-1.58048	4.4041536	23.17392	-19.389024
C	-0.930664	1.76554	-2.05229	-24.622848	-18.454031999999998	6.0969456
C	-2.12342	1.47526	-1.36456	-8.822375999999998	4.883731200000001	13.095863999999999
C	-2.10119	0.82037	-0.111606	9.1401696	-2.8024416	4.973659199999999
H	-0.849757	-0.0744348	1.38875	4.3122096	-8.623857600000001	8.0483904
H	1.23594	0.140608	0.0321148	14.971680000000001	-6.6400559999999995	0.9826559999999999
H	1.11559	1.46183	-2.20362	8.77032	-10.7181792	9.9017712
H	-0.990968	2.36285	-2.97417	5.913792	-5.4269568	5.2320816
H	-3.09822	1.81007	-1.74364	5.643576	2.4988032	-0.3868704
H	-3.01312	0.729804	0.530023	13.1075856	0.17940815999999998	-16.164576
12
Properties=species:S:1:pos:R:3:forces:R:3 energy=-146531.097
C	-1.07791	0.113295	-0.0564855	20.614607999999997	-1.9749311999999999	5.847177599999999
C	0.126442	0.490669	-0.630175	2.3574384	33.877872	-50.102064
C	0.143465	1.52898	-1.64686	-8.1688032	-33.958512	43.055279999999996
C	-1.04546	2.19581	-1.94607	10.9502784	9.2413584	3.6938159999999995
C	-2.23744	1.85912	-1.29566	7.228295999999999	-8.0882496	26.109072
C	-2.23257	0.813671	-0.322842	-12.0742416	24.083712	-30.728015999999997
H	-1.03977	-0.689997	0.662173	-6.3474911999999994	-7.3255392	9.2703168
H	1.06044	0.0116384	-0.380084	6.6071664	-6.6285647999999995	3.9300192
H	1.09394	1.83313	-2.06366	4.844592	2.4492384	-5.6505168
H	-0.947389	3.10073	-2.55597	-9.2498976	-4.7835648	-4.9034736
H	-3.09708	2.52506	-1.37518	-4.2969168	-5.1738624	-5.277124799999999
H	-3.1351	0.565409	0.206546	-12.4649856	-1.7189424	4.7552688
12
Properties=species:S:1:pos:R:3:forces:R:3 energy=-146530.5912
C	-1.091	0.095703	-0.0753116	15.651792	-2.510352	8.0305056
C	0.12456	0.479266	-0.675058	-2.4169104	15.243263999999998	-20.297088
C	0.119001	1.56004	-1.64599	15.882048000000001	-33.469344	32.095584
C	-1.04816	2.25509	-1.9405	5.0969664	-12.1953456	18.862416
C	-2.24182	1.87648	-1.28395	5.6604672	10.740384	7.03584
C	-2.25425	0.811464	-0.347711	-8.1638352	12.9468672	-15.251039999999998
H	-1.12798	-0.703783	0.698222	3.5422416	9.478339199999999	-12.3255936
H	1.06513	-0.0347782	-0.381151	-11.3055984	8.141716800000001	-7.6850928
H	1.07118	1.90128	-2.07336	-3.3986448	-4.3896096	0.9962423999999999
H	-0.883164	3.14856	-2.54176	-16.729775999999998	1.15815168	-5.018976
H	-3.09214	2.55859	-1.39065	-4.6012464	-9.4151232	-0.99392112
H	-3.16485	0.545014	0.203073	0.78260256	4.2711552	-5.4488736
12
Properties=species:S:1:pos:R:3:forces:R:3 energy=-146530.478
C	-1.15835	0.0964715	-0.273469	-20.853792000000002	27.59256	-20.362464
C	0.0298197	0.500959	-0.897833	-17.23968	-25.414992	19.189439999999998
C	0.0901986	1.67936	-1.61705	-5.8073184	8.179502399999999	-6.573052799999999
C	-1.06544	2.44856	-1.76552	-9.4153104	-6.7880016	1.7752752
C	-2.31573	2.00225	-1.24212	29.110895999999997	19.48032	-11.3928624
C	-2.34168	0.848546	-0.47262	14.284036799999999	-16.730064	-0.044119295999999995
H	-1.2894	-0.842115	0.236515	9.459575999999998	-10.727596799999999	7.1465472
H	0.791436	-0.24995	-0.827769	25.39008	0.2578104	-2.9306016
H	0.977646	2.00559	-2.15457	6.3875664	-2.5254431999999998	2.9828016
H	-0.944853	3.35073	-2.37344	-11.1639024	0.6308524799999999	2.6622432
H	-3.18542	2.59791	-1.49564	-8.922427200000001	-1.09549152	4.1558832
H	-3.24701	0.380591	-0.106399	-11.2298688	7.140528	3.3909408
12
Properties=species:S:1:pos:R:3:forces:R:3 energy=-146531.0154
C	-1.42836	0.0812863	-0.903347	36.800208	14.3998992	-1.7747423999999998
C	-0.179754	0.590452	-1.27759	8.9337456	-7.947388800000001	-3.5184528
C	-0.0313721	1.9211	-1.62402	-10.282305599999999	25.606368	6.2880335999999994
C	-1.14526	2.76508	-1.48555	0.8028288	-1.4917535999999998	-13.1857776
C	-2.39236	2.26518	-1.079	5.1679151999999995	22.974048	-7.2077040000000006
C	-2.50576	0.92822	-0.77869	-28.113408	-37.870703999999996	17.110224
H	-1.45394	-0.945932	-0.625995	-8.615952	-21.46536	5.7096
H	0.693602	-0.0485236	-1.26181	4.8857615999999995	-8.2436544	-3.7730591999999996
H	0.894794	2.42185	-1.94557	-0.32228784	-14.164963199999999	2.9110751999999995
H	-0.993695	3.79993	-1.79631	-8.1043776	3.3969167999999996	4.1679504
H	-3.25581	2.92495	-1.0404	-1.9473840000000002	2.6257968000000003	3.5755776
H	-3.39435	0.398156	-0.363414	0.7951550399999999	22.180895999999997	-10.302811199999999
12
Properties=species:S:1:pos:R:3:forces:R:3 energy=-146532.9516
C	-1.4273	0.0769506	-0.92283	17.046575999999998	10.184284799999999	6.8108688
C	-0.182801	0.5973	-1.30256	4.1379264	-21.16296	4.026340800000001
C	-0.0334575	1.92713	-1.62248	-19.541808	26.821295999999997	7.016932799999999
C	-1.14607	2.77731	-1.47521	-2.2467311999999997	-2.2294367999999998	-11.64384
C	-2.39822	2.2724	-1.07731	11.7389808	15.904656	-6.4910592
C	-2.52329	0.930979	-0.787701	11.9848032	-26.946288	2.7571104
H	-1.46427	-0.957533	-0.594633	-5.4210672	-4.668623999999999	-1.821888
H	0.692053	-0.045804	-1.26252	3.1218624	-5.1400944	-5.4366335999999995
H	0.904038	2.38648	-1.91333	8.016264	-4.0549968	-1.6017984
H	-1.02033	3.8283	-1.74607	-3.9178656000000003	0.8080171199999999	3.0734207999999996
H	-3.25779	2.92649	-1.00799	-4.301495999999999	6.2327808	2.5840224
H	-3.39475	0.456717	-0.376651	-20.617344	4.2513408	0.72651024
12
Properties=species:S:1:pos:R:3:forces:R:3 energy=-146531.4678
C	-1.4815	0.0869065	-1.00666	24.73056	7.9340687999999995	-27.839088
C	-0.249867	0.617972	-1.44518	2.170728	-5.0470848	3.6794016
C	-0.0872474	1.99654	-1.58184	-13.1586912	14.869295999999999	-3.9721104
C	-1.16869	2.87655	-1.40957	4.1540256	-18.939456	12.65004
C	-2.40126	2.32397	-1.05601	-8.2582272	14.2707168	1.7514576
C	-2.55674	0.956154	-0.8819	13.0190688	-15.784848	4.7516112
H	-1.59427	-0.998151	-0.966122	-2.8714896	1.29162096	5.2868016
H	0.567	-0.0535413	-1.71674	2.3542416	-0.02909232	5.2539408000000005
H	0.823272	2.50544	-1.85761	16.860528	-9.251467199999999	-4.5755424
H	-0.980072	3.94934	-1.46877	-6.5441664	0.29536271999999997	-2.376
H	-3.2546	2.96854	-0.88113	-6.1193808	5.0488272	-1.5785136
H	-3.467	0.451736	-0.647035	-26.337024	5.3420976	6.9679872
12
Properties=species:S:1:pos:R:3:forces:R:3 energy=-146531.83740000002
C	-1.48059	0.102385	-1.06391	-12.2087232	-9.8993232	-13.8218976