9
Properties=species:S:1:pos:R:3:forces:R:3 energy=-97196.63816586451
C	0.03912979	-0.55338129	-0.13645935	-50.007291389	30.538821505	-56.5474372525
C	-1.24436443	0.27138882	0.16449295	-6.91619099095	-66.655941675	-18.5844283064
O	1.11092106	0.26991027	-0.06066504	76.338521433	27.0449478765	22.471849868
H	0.11637671	-1.50552105	0.35777396	-1.229072840335	-15.5048108053	19.56506969015
H	-0.01048846	-0.78556247	-1.23801503	-2.262670011825	-4.58626546835	13.405903869
H	-1.43675035	0.2954319	1.21810506	-0.392424894055	18.484738413349998	22.40462894775
H	-1.36963406	1.20021373	-0.41619968	5.60304242055	-6.402982901700001	7.60149847225
H	-1.9452882	-0.52048226	-0.16831137	-19.86785208565	15.575721381549998	-3.4186507668
H	1.3724192	0.39028218	0.87555447	-1.22305639502	1.50730288119	-6.7202010763
9
Properties=species:S:1:pos:R:3:forces:R:3 energy=-97202.94596279012
C	0.00246246	-0.56698365	-0.1363042	5.1712834875	25.926290297999998	-23.295104363
C	-1.26713143	0.24254751	0.17276196	-0.101052298528	-36.4120620465	21.42184295145
O	1.17004748	0.27653069	-0.06614858	4.84209699125	-6.141432412	26.426469289499998
H	0.11611738	-1.57882377	0.35047462	-3.88426229365	19.55718305045	0.22239655203849998
H	-0.06309303	-0.70778308	-1.22151901	1.1834341016499998	-14.60727892295	-3.7954107651
H	-1.44036724	0.39230146	1.27920411	-0.9959972708149999	-1.741487653545	-21.49738865805
H	-1.28691104	1.18482531	-0.36989044	4.2081449094000005	5.9215750351	-1.30591684464
H	-2.01600858	-0.42781233	-0.28087849	-16.00671932305	8.632203875850001	11.3398809918
H	1.18658675	0.61232847	0.85817595	5.61272776755	-1.074554659125	-9.3681288254
9
Properties=species:S:1:pos:R:3:forces:R:3 energy=-97205.22132337377
C	-0.00628756	-0.56197692	-0.14230464	9.25358806695	22.836849087799997	-35.7668334535
C	-1.27349056	0.22497149	0.17414212	9.6856698449	-18.7670201577	32.880369444
O	1.18638326	0.27747251	-0.06251569	-9.8018478882	-12.09162534145	14.95373762135
H	0.10371101	-1.54497267	0.35792085	-0.48273153069	7.4419439106	4.1956923204
H	-0.07523557	-0.73959688	-1.24627246	3.75069674645	-7.82615240195	12.86290180755
H	-1.45118179	0.42369425	1.26987347	1.526403769095	-6.9234319408500005	-17.83277619815
H	-1.25259714	1.16075101	-0.33920401	3.04537288135	22.1710506626	-11.37412561155
H	-2.06968399	-0.3531353	-0.26428451	-22.089578446049998	-6.8850364581	2.6823337913
H	1.16204975	0.6631227	0.83492282	5.11116515505	0.1653161900975	-2.5026014234
9
Properties=species:S:1:pos:R:3:forces:R:3 energy=-97195.11283693834
C	-0.02794271	-0.51645031	-0.21051315	25.069598295499997	-49.4097977205	55.289725763499995
C	-1.31456494	0.15623232	0.18145365	-3.2730938376000003	74.36271064499999	15.99403613055
O	1.2451595	0.26526175	-0.03448782	-39.7562740035	-3.3713770493	-10.316462658799999
H	0.0919655	-1.38560634	0.51075414	1.44576403118	7.59356571185	-17.3051323298
H	-0.04091524	-0.96277407	-1.20283061	3.8190245635	8.32656199695	-10.0592013942
H	-1.43706714	0.44009385	1.27510261	13.15544540765	-16.42046812275	-16.11768572725
H	-1.12642049	1.15515213	-0.26743574	-15.12152472795	5.62435018395	-1.256316337825
H	-2.35682896	-0.07874659	-0.11085223	16.6437614918	-19.6521686321	-11.3003094312
H	1.10084245	0.91217281	0.68897501	-1.9259358630199999	-6.993005016800001	-4.82447888385
9
Properties=species:S:1:pos:R:3:forces:R:3 energy=-97190.46972932147
C	-0.024354	-0.51225306	-0.22377912	18.055838963699998	-49.82027195049999	32.1071559085
C	-1.34026538	0.16211925	0.1783545	63.085738287999995	44.356122018	50.944233409499994
O	1.25531774	0.2565575	-0.02403307	-37.945344718	-4.00980283905	-20.08369696165
H	0.11079388	-1.3115046	0.53580141	-1.32511227998	-8.17989817095	-12.09513051465
H	0.00636877	-1.02563837	-1.22431654	-0.0688289184555	20.57137724345	12.23764347765
H	-1.36536526	0.36697964	1.31077058	4.6290424176	-11.223541526049999	-27.592400585500002
H	-1.1570001	1.12555975	-0.22653167	-8.19668610575	41.7362356545	-12.665828056450001
H	-2.33266433	-0.040455	-0.06779225	-35.251895838	-34.305499074000004	-24.570802925
H	1.07168293	0.98335208	0.59483788	-3.0795252597	0.976967869995	1.8027636155650002
9
Properties=species:S:1:pos:R:3:forces:R:3 energy=-97200.03441280949
C	-0.01462328	-0.51462519	-0.25745757	13.9022087217	4.7283402847	-40.038993894499995
C	-1.31803197	0.1718145	0.22750762	49.6837546785	8.4035605056	-12.0162410573
O	1.17432027	0.27062917	0.07976428	-14.165788522199998	-4.8031480601	18.7367188578
H	0.21208721	-1.50691248	0.10953832	-7.118522501849999	-12.939600531650001	13.6054681379
H	-0.00798924	-0.63499641	-1.38184491	-7.6463969737	1.7481013619249999	15.994451216849999
H	-1.12710566	0.41680531	1.26177134	-11.2861042556	-7.538612897799999	21.5838419102
H	-1.12644557	1.16043842	-0.22463467	-27.415066493999998	1.45529717987	-7.8986772027
H	-2.26921203	-0.34919099	0.01826396	8.4689135375	7.9926942496499995	-0.331245785505
H	1.55729622	0.70152193	-0.69233537	-4.35842921035	1.0081108726699999	-9.698722003
9
Properties=species:S:1:pos:R:3:forces:R:3 energy=-97200.31170636954
C	-0.01009801	-0.52163398	-0.26557449	8.736159933649999	8.525042429400001	-27.9272368675
C	-1.31967681	0.17380839	0.2275062	40.971323845	12.250303609800001	-17.15134285565
O	1.17397662	0.2760131	0.08306482	-18.183039854300002	-8.807024389199999	18.2008885652
H	0.19499553	-1.5215415	0.11324158	-6.24333609865	-7.1351951349	11.909287154
H	-0.00156769	-0.64605088	-1.37564696	-6.86144572005	1.882123504055	8.060445557949999
H	-1.10706868	0.41634885	1.25948897	-11.461247613849999	-8.37854002585	21.52413866405
H	-1.15851961	1.19656922	-0.20875466	-25.399130697	-13.0774783643	-5.04599660595
H	-2.29736863	-0.3528387	0.04273638	21.4340879973	13.67282742025	1.374279252215
H	1.57929144	0.66947578	-0.69595854	-2.9411400993499996	1.15954819112	-11.0276438528
9
Properties=species:S:1:pos:R:3:forces:R:3 energy=-97201.112194534
C	-0.04757027	-0.46526075	-0.33749867	11.9325319868	34.726581065	-10.97910181605
C	-1.31814048	0.13490326	0.27323026	20.74562124805	17.35920885055	-12.409258602349999
O	1.24697695	0.3183962	-0.0085917	-47.6751981935	-28.7569482605	-14.158340029149999
H	-0.01673943	-1.46104613	0.10551265	14.2159217231	-11.023677472600001	-7.801270284299999
H	-0.18782143	-0.47763793	-1.46542636	17.762211527149997	-4.09111363315	25.044923721
H	-1.08911154	0.26714213	1.31196229	-4.5783557683	3.91234979995	25.6327320425
H	-1.60115942	1.13526152	-0.12903917	0.36690631074499996	-14.3585730482	-0.175024828051
H	-2.09544228	-0.62005376	0.17973904	-12.161636564050001	0.84879613866	-2.56391889405
H	1.4694912	0.03738314	0.8994586	-0.552482171335	1.3656154787199999	-2.45590421465
9
Properties=species:S:1:pos:R:3:forces:R:3 energy=-97199.74834916774
C	0.01055445	-0.37373752	-0.28556301	-34.0202425445	-82.0369645215	-71.24817977400001
C	-1.26744541	0.12040461	0.28347751	-19.99906547715	30.6658840335	-14.3452441659
O	1.16224419	0.24277214	-0.04612506	71.291533232	64.08932472	38.184249944
H	0.17002899	-1.43722097	-0.01990737	-13.3077590194	-9.4018891778	6.352665218
H	0.01018581	-0.46449576	-1.43420858	-14.5492821427	7.7318586308	25.246240576499996
H	-1.25138679	0.21322451	1.35276032	5.0408080272	3.2374194761500004	23.0300948208
H	-1.58533718	1.09893568	-0.13859509	7.04062463955	-3.05542719395	4.6565303548
H	-2.09659436	-0.54087168	0.07173745	-6.69218275105	-14.16147623675	-5.99423819795
H	1.2806086	0.29405397	0.92522426	5.21982552425	2.9453601434	-5.8086715615
9
Properties=species:S:1:pos:R:3:forces:R:3 energy=-97198.86672385361
C	-0.03181715	-0.47003992	-0.33610979	38.6120194365	-12.69262418315	8.59475386745
C	-1.2285153	0.11298273	0.31836805	-52.1009405655	-4.01529120235	25.303660848
O	1.19173088	0.25324169	0.04960755	-26.0478183425	1.24817834031	-12.656650037150001
H	0.23844744	-1.5521786	-0.23283031	-16.38670777035	13.292815912599998	5.62697906385
H	-0.2018737	-0.25583298	-1.37594738	2.9693198470499995	-7.1862507498	-27.5430514365
H	-1.42039496	-0.08790399	1.42290849	8.31263354555	-1.942841405605	-26.32569556
H	-1.23916824	1.21356064	0.22524526	6.662112054650001	-0.243339731305	-0.93536930463
H	-2.13842999	-0.17805899	-0.29079519	12.164588288849998	-1.00550505312	17.589512566
H	0.86188069	1.09384015	-0.32460762	25.7650984515	12.608776750549998	10.3022574832
9
Properties=species:S:1:pos:R:3:forces:R:3 energy=-97196.72397042903
C	-0.04049912	-0.34751638	-0.34637681	16.40137415295	-4.2350793982	-108.998895138
C	-1.24146419	0.07141616	0.32029791	-38.3463642045	36.983728123	5.018393367
O	1.17030559	0.23440786	0.08180169	-0.0679286423915	-4.8886097172000005	31.347317375999996
H	-0.06123177	-1.43078851	-0.26218195	22.0808846941	-16.235477995049997	-0.50576882034
H	-0.24320847	-0.12490158	-1.52165304	17.207956014900002	-13.753192740000001	46.96101915399999
H	-1.05933995	0.04100411	1.37406485	-5.3056792073	8.25346068745	26.627555541499998
H	-1.59715316	1.05199494	-0.06600554	1.3958176191149998	-3.40654408305	16.30119999255
H	-2.00389742	-0.6626414	0.08574032	-12.2719342181	-5.818218546399999	-0.24800714614500002
H	1.66313859	0.69302451	-0.59767428	-1.03978656943	3.15518626805	-16.5841735474
9
Properties=species:S:1:pos:R:3:forces:R:3 energy=-97190.28504543522
C	-0.07769224	-0.36642992	-0.56928667	23.984378224500002	77.4096746905	-18.6718270329
C	-1.10642207	0.01111435	0.39503114	-79.7650588395	-10.98754190415	40.0897266645
O	1.13016419	0.24683588	0.13060677	11.90096236765	-61.189024500500004	-30.5404357295
H	-0.14471643	-1.42410308	-0.84177948	26.846398263	-2.8972101325999997	7.429122356
H	-0.14737973	0.30164157	-1.50424738	-4.64981979295	-30.962670738000003	14.9355430052
H	-0.77536031	-0.23908481	1.44045989	-4.7576038688499995	3.15357204355	-16.39062802985
H	-1.45311809	1.06608377	0.38795857	14.5383976575	-1.313390704075	-1.8281484488450002
H	-2.09656302	-0.51517417	0.26563565	13.9154453626	0.593303602905	-1.4789986076
H	0.78664746	1.12499134	0.25524779	-2.02984580012	26.3296158195	6.39106070075
9
Properties=species:S:1:pos:R:3:forces:R:3 energy=-97200.93475482608
C	-0.04290329	-0.3204235	-0.43000647	2.5517660896	9.295949929899999	-30.5335176245
C	-1.24808677	-0.00363698	0.4008034	-9.391442839249999	0.95769172343	-6.592331435549999
O	1.2254456	0.26626409	-0.01086397	-6.4101777309	-27.4692583165	-3.4629266388
H	-0.0989247	-1.4570645	-0.56981778	25.034546563499998	24.400386938500002	10.72465391415
H	-0.16978048	0.08731119	-1.46378751	-5.46228204415	-6.074995543649999	7.12511776195
H	-1.20944027	-0.43958978	1.36835016	4.87788665445	-18.184769380549998	28.3690731735
H	-1.56478037	1.01119256	0.58091138	8.13257833275	23.984147620999998	-6.8080840701500005
H	-2.09022025	-0.45420755	-0.10648612	-13.7387108402	-8.7100786778	-5.3963063828
H	1.06375994	0.88588339	0.71126388	-5.61517216465	1.790380207615	6.7150816786
9
Properties=species:S:1:pos:R:3:forces:R:3 energy=-97201.04580932081
C	-0.0461024	-0.31937874	-0.42638046	8.4982924234	7.98139467815	-28.283058068
C	-1.25106274	-0.00398652	0.40036301	-6.2630065772	-1.00006281052	-3.1131472500000004
O	1.22950811	0.2668988	-0.01282605	-8.76503149185	-32.12767962	-8.29686026615
H	-0.09478027	-1.44962133	-0.57134842	24.0623222075	20.81489453945	11.6060896722
H	-0.16694213	0.0775486	-1.45405407	-6.84867028615	-2.40185075425	1.227500124465
H	-1.20949618	-0.44239656	1.37053835	3.4130240414	-17.68685030335	25.0838957125
H	-1.56319967	1.00866632	0.58589181	6.9770933753	25.709061800999997	-6.929842718150001
H	-2.08004294	-0.45368119	-0.12453096	-16.077214813	-9.03723586325	-4.4332600461
H	1.05417212	0.87465016	0.70712205	-5.0195463845	7.76762523365	13.280271082199999
9
Properties=species:S:1:pos:R:3:forces:R:3 energy=-97199.13032579204
C	-0.06654543	-0.30695608	-0.40227161	43.308720921	22.70007815195	-20.914077104799997
C	-1.27872607	-0.00863411	0.39961887	-12.2821268928	-6.82699355715	27.804555805499998
O	1.26034949	0.26458973	-0.03136618	-43.031535514	0.6359998409300001	28.693071090999997
H	0.0237366	-1.3612188	-0.53588153	9.08533975335	-31.036002651	9.51292476305
H	-0.18039475	0.01649462	-1.41998801	-10.8146123395	14.370748912999998	-21.707745170749998
H	-1.21183706	-0.51149255	1.42616714	-9.1669964527	8.152640837249999	-26.7064219385
H	-1.52500815	1.06578289	0.59689205	5.1686315472499995	-11.541243968	-10.308552958749999
H	-2.0523126	-0.47204121	-0.27152248	-2.4869203854	8.26512922455	23.993141157500002
H	0.96920992	0.82164527	0.73382987	20.2398385915	-4.7236359732999995	-10.300135931
9
Properties=species:S:1:pos:R:3:forces:R:3 energy=-97195.15177272509
C	0.00723708	-0.41074864	-0.44797977	-19.8816191146	29.038745737499998	-10.2309087603
C	-1.22103905	-0.00213754	0.38862116	-26.640699940999998	50.9838972115	8.8890269938
O	1.09348535	0.37262068	-0.00595091	45.034557515	-20.29064054255	40.223707298
H	0.1380248	-1.45262364	-0.43391679	15.7293263729	-45.876721497	14.477126307550002
H	0.061227	-0.24107813	-1.54949866	-27.253413440499997	10.8873446834	8.058669910999999
H	-1.24570442	-0.27713205	1.49411553	4.73659589	-16.26739351945	-29.6881251935
H	-1.08789289	1.11410007	0.55464338	-3.93227394235	-15.895706798149998	-12.232016752249999
H	-2.26818652	-0.05756361	-0.05943854	26.916962934	-11.66879076385	8.3062919493
H	1.50801933	-0.08195969	0.79587839	-14.693132605999999	18.972211152	-27.690176469499995
9
Properties=species:S:1:pos:R:3:forces:R:3 energy=-97195.2683868396
C	0.00342664	-0.45026562	-0.45333509	-3.1001873333	1.64933618891	-36.3594844485
C	-1.23044933	0.0313685	0.3909648	31.572847599	6.91619099095	-17.103377327649998
O	1.08135494	0.38836655	0.01425481	3.7614198092	-8.601810334549999	-10.3304833516
H	0.21420121	-1.60029173	-0.52497083	-4.3299727384499995	38.531077608	17.773119072700002
H	0.09688844	-0.13785993	-1.53820242	-32.420546064999996	-8.5471803654	13.777429167849998
H	-1.07653673	-0.3007104	1.41952151	-8.04665546865	-10.74697633295	4.48982708465
H	-1.02491256	1.10988465	0.45852012	-9.23910616715	2.22016286867	-3.1753179536000005
H	-2.24188207	-0.11258282	0.01654009	-3.7097185045	-10.096005712799998	-2.2653173400049997
H	1.48781864	-0.13300988	0.68552933	25.579693237500003	-11.4726624871	33.23457642
9
Properties=species:S:1:pos:R:3:forces:R:3 energy=-97195.82253212338
C	-0.00228686	-0.48110795	-0.47176879	-6.23729428695	39.2134333645	8.20305076235
C	-1.22688563	0.06399332	0.38691192	44.193777153999996	-49.680756833000004	-14.2873626874
O	1.07532586	0.39617731	0.03273771	25.8416588135	-49.4328580705	21.15775582325
H	0.26726206	-1.57757234	-0.51279277	-9.041363665899999	20.37315047485	9.51084933155
H	-0.03925268	-0.08130821	-1.4720752	-13.058568877299999	-8.1278048403	-22.860693489699997
H	-0.96850799	-0.37428648	1.35623319	-13.6376142658	8.662620477499999	11.878363224649998
H	-1.01735421	1.1138482	0.35490592	-9.02395310165	19.5213703269	6.145583275
H	-2.22124298	-0.21522537	0.07712187	-12.337425612099999	-3.8999202712999996	-5.957918146699999
H	1.55599163	-0.18524933	0.68811112	-6.66695472815	23.4009513695	-13.8230194798
9
Properties=species:S:1:pos:R:3:forces:R:3 energy=-97190.39279976326
C	-0.06161405	-0.32881889	-0.4041605	40.933966078	1.44358713414	40.141151244999996
C	-1.32814314	0.02649185	0.37205021	-14.52001855855	12.614472656999999	-44.608863453999994
O	1.2533849	0.30154058	0.09830931	-28.760176709499998	-31.2539229585	-41.964533119500004
H	-0.02567277	-1.41020675	-0.2588497	20.04352583195	-10.6128803977	-8.92843713195
H	-0.03303067	-0.06336392	-1.47180695	-20.0157842309	-2.9793280389500003	1.526408381165
H	-1.32522282	0.22320933	1.47964061	6.724190516849999	-7.738315528799999	-24.520070155
H	-1.71524605	0.86027477	-0.2437924	-9.6018224123	10.397658151149999	23.620485901499997
H	-1.99733842	-0.81553	0.03716546	1.85710533034	11.67893731785	22.22475821775
H	1.76055165	0.02020761	-0.72022765	3.4250615440999996	16.410621353299998	32.518091345500004
9
Properties=species:S:1:pos:R:3:forces:R:3 energy=-97199.36251722775
C	-0.01553014	-0.41172765	-0.44453236	1.638523190795	-18.24075991035	44.0187490975
C	-1.27915835	0.0696898	0.35937787	-6.32132620235	25.076747003999998	-40.309261196499996
O	1.18501895	0.27854821	0.11117544	-33.2790828955	-42.138177555	10.18840853525
H	-0.00436742	-1.53970502	-0.16872428	18.78945787825	32.5065611705	-10.030306775649999
H	-0.05320199	-0.37838169	-1.56128676	-5.00241254445	8.8038420609	14.7262933893
H	-1.09824513	0.24580859	1.44706112	0.1868826906245	-14.866385015550001	-15.14638378525
H	-1.65463227	1.04738317	-0.04606363	9.964146631499998	-6.1288414609	6.5392695702
H	-2.1284581	-0.60150778	0.09912159	7.9935936033	-1.69233912959	15.5177246013
H	1.55529661	0.87915746	-0.52012812	6.101261282299999	16.638503732	-25.510281583999998
9
Properties=species:S:1:pos:R:3:forces:R:3 energy=-97201.49611015889
C	0.01161695	-0.46584312	-0.27931236	-19.00516439215	29.8274097075	-42.2214254185
C	-1.31545345	0.08656784	0.27540961	-4.72693360335	29.270732858499997	22.5088386694
O	1.22090825	0.29702506	-0.04703358	-9.75653430045	10.4604976049	31.678464002000002
H	0.05675642	-1.50894427	0.03293336	13.50748471075	-8.25599732595	2.30442538757
H	-0.06812985	-0.39655073	-1.40074073	1.01132087339	-12.8924421159	14.50835002145
H	-1.33926616	-0.15021389	1.36624207	-10.005609140799999	-3.9431814879	-9.5438025717
H	-1.36340865	1.22640091	0.29284156	3.70328466685	-23.374431967	-11.23009066545
H	-2.26478894	-0.26921396	-0.24709273	27.991575244	2.2377832821049997	13.135405963499998
H	1.13455328	0.90171134	0.74890322	-2.7110208666999998	-23.2307659865	-21.1447267255
9
Properties=species:S:1:pos:R:3:forces:R:3 energy=-97197.33632464828
C	0.02369486	-0.41438592	-0.28227963	-25.267686702	-50.930166596	19.2017538759
C	-1.34413413	0.07194434	0.31044746	24.826311603	21.0669672253	-29.628398887000003
O	1.22287741	0.30106443	-0.07218053	3.15472506105	7.14684061165	7.3427844056
H	-0.05292859	-1.47749401	0.19071327	30.501463738	18.9936111568	-22.9203275548
H	0.0957621	-0.46907414	-1.38960056	-22.7102477663	-7.9889354126	8.37987752615
H	-1.56473072	-0.16361949	1.35620981	8.8797567331	-2.23101968145	1.3666485823999999
H	-1.35412251	1.13474906	0.13570565	-9.671211005450001	23.476358714	6.506938959499999
H	-2.13710124	-0.31814609	-0.32300784	-6.868548307849999	-8.728503897449999	-2.58739433035
H	1.33541993	0.59374214	0.84007719	-2.8564855545	-0.77402525982	12.498732760349998
9
Properties=species:S:1:pos:R:3:forces:R:3 energy=-97197.18373569593
C	0.01742614	-0.4880681	-0.24979567	-29.123838429	28.453243451	-4.310440622
C	-1.32814733	0.0912801	0.24535674	32.076485643000005	18.986508568999998	26.255361492499997
O	1.1876086	0.37969083	-0.03581323	5.29089752295	-39.473092905499996	38.567051754
H	-0.07634836	-1.50191169	0.19102729	31.912757157999998	0.89477386449	-9.5439409338
H	-0.0309702	-0.4226381	-1.31753165	-4.8050159484499995	-23.561682009000002	-25.764867848
H	-1.31822428	0.03491986	1.33550833	-8.19258136345	-5.831501308	9.02399922235
H	-1.4545675	1.14618195	0.06630711	2.8570851236	18.14911807945	-12.2287191222
H	-2.1930899	-0.39800035	-0.15582247	-11.8709147316	-17.15720018455	-7.868214480349999
H	1.83953251	-0.15886302	0.50188245	-18.1376570855	19.53831968415	-14.14662537135
9
Properties=species:S:1:pos:R:3:forces:R:3 energy=-97202.32003824672
C	0.00795152	-0.48293413	-0.26172399	-7.603965929699999	11.17303935955	-28.363077482500003
C	-1.32035403	0.09491696	0.25376138	22.0426967545	22.88506827965	-2.7880885564
O	1.17369599	0.37661855	-0.01802761	-10.3070079153	-12.867167972299999	20.26439786425
H	-0.03563352	-1.49645004	0.14791292	26.6930469355	-7.6055340335	1.69482964739
H	0.04030281	-0.51993235	-1.37382706	-13.5995646883	-10.34646417415	7.00137592385
H	-1.31250907	0.05189365	1.33876178	-2.5270453944	-0.0936395490205	11.61570583815
H	-1.37846686	1.15477293	-0.02301212	-5.2201714295	2.44557317785	-1.3890424882849999
H	-2.21291342	-0.42277665	-0.10502949	1.49696723232	-5.57458594865	-5.7533728422
H	1.90642702	-0.12356563	0.39623599	-10.889881321899999	-0.039132491536	-2.18374596395
9
Properties=species:S:1:pos:R:3:forces:R:3 energy=-97202.26610585315
C	-0.00256974	-0.47569296	-0.27848793	22.6768102588	-25.3592362915	-29.7065734735
C	-1.30773708	0.10361448	0.26131781	-0.303720951745	18.266403019549998	-12.6346274029
O	1.15939556	0.37122499	0.00183789	-44.1156025675	20.319950247399998	-0.9339072784399999
H	0.07903492	-1.50874406	0.11117597	10.8977679616	3.2347905962500003	6.09584210005
H	0.06534571	-0.63835474	-1.41391261	-18.1874213208	8.96431903655	24.773734005
H	-1.31601731	0.06557544	1.37215372	2.4897568084499997	5.5338844309	-9.118108510699999
H	-1.32484171	1.17387485	-0.10818289	-11.218860274999999	-18.8969882903	12.87689944
H	-2.22952049	-0.46368788	-0.07781312	22.72373807105	12.4495450338	0.32673287501
H	1.93522953	-0.08903433	0.29200594	15.07655704545	-24.5369042105	8.24640422035
9
Properties=species:S:1:pos:R:3:forces:R:3 energy=-97197.15427402339
C	-0.00251521	-0.48387003	-0.16009503	13.55037696175	-20.3671778442	-28.1919696855
C	-1.37420856	0.17014683	0.17560834	40.530409952999996	-17.321551299	2.88173663775
O	1.27741377	0.25816321	-0.03709206	-36.858279819	26.502337841	36.057624467
H	0.02060179	-1.53245569	0.25930818	9.0790903985	22.71709669025	19.636187809549998
H	0.14561805	-0.78451954	-1.2010816	-23.278962118	5.101156963149999	-16.443689895200002
H	-1.38866428	0.34820176	1.24202762	0.18217099991250002	11.195338718	15.700547056099998
H	-1.5803426	1.0908073	-0.36654479	-4.5745277502	1.7490975690450001	-5.97874164275
H	-2.11960886	-0.61689316	0.06381435	-8.96680955435	0.696323410495	-12.316210090099998
H	1.0497103	1.13379293	0.40639418	10.329053609899999	-30.1982201355	-11.241413297300001
9
Properties=species:S:1:pos:R:3:forces:R:3 energy=-97204.40671674063
C	0.02727169	-0.55990601	-0.1918372	-21.6842005534	13.3372762674	36.056471449499995
C	-1.24540437	0.17866907	0.18153492	-21.8007014416	16.2789928755	-2.0651996227050002
O	1.14973994	0.30984069	-0.04875111	15.0017723304	5.4852732131	-5.12869102105
H	0.09515336	-1.38394005	0.50748701	8.607413999599999	-18.5158929462	7.7848051944
H	-0.09706919	-1.01090503	-1.18290013	15.5594177141	10.8457899327	-7.870174610099999
H	-1.41966884	0.40196192	1.26433179	12.78154489275	-4.8526816919	-10.03445763865
H	-1.26868863	1.13855723	-0.35868946	0.2059148586865	1.9757531371250001	1.3043741072250001
H	-2.15777427	-0.33754895	-0.1389865	-1.49877977583	-7.53692949225	-1.966104686685
H	1.11219041	0.81501237	0.80536433	-7.10671560265	-16.96589152095	-17.986035284249997
9
Properties=species:S:1:pos:R:3:forces:R:3 energy=-97199.26126361235
C	0.0069829	-0.56419878	-0.15164367	15.16372516845	25.46785054	-28.085661471999998
C	-1.27466222	0.19406845	0.15324485	-2.298681054385	3.0634521957499996	-17.7733496762
O	1.12395224	0.36323482	-0.03725401	-11.101552274549999	-1.5973996686399998	7.0394485616999996
H	0.03862206	-1.31210364	0.59650887	12.782213642899999	-30.268554203	23.2067832225
H	0.24797563	-1.05258244	-1.14883758	-33.7679623155	7.1517063455	13.207538738299998
H	-1.32162707	0.51487731	1.24038629	-0.64650152432	-13.4368508587	-24.006746764
H	-1.28690497	1.1081637	-0.46468262	-4.8464553974	-1.0353774305099999	2.162749515275
H	-2.10712582	-0.46059744	-0.17686352	-3.4067977469	9.182216283699999	11.5204435323
H	1.69294246	-0.15451179	0.52575533	28.179517096499996	1.40402479768	12.8629248679
9
Properties=species:S:1:pos:R:3:forces:R:3 energy=-97201.42106393949
C	0.02323117	-0.57432542	0.04747656	10.5781976313	11.46839632235	-46.074118093
C	-1.32620362	0.22003857	-0.08839604	4.0413724582	-12.42124998435	5.87114204965
O	1.19593946	0.29418134	0.07535468	-2.24122158029	-23.789748870500002	32.845548315500004
H	0.05026482	-1.09789039	1.02150192	0.1603019475935	3.1347778583	-6.2401768307
H	0.17332557	-1.37266714	-0.80989944	-11.47245494395	27.4789436635	31.4688454205
H	-1.30949706	1.05444776	0.69432457	-6.06028304035	-21.7836829033	-21.933413755849998
H	-1.58210901	0.63156821	-1.12700384	13.697732598250001	-10.5428691751	28.021092491999998
H	-2.09411901	-0.56865743	0.16548751	3.6549271129	21.8751402514	-2.918979103
H	1.30389354	0.90376357	-0.6529431	-12.322090479349999	4.6621109595	-21.1977194098
9
Properties=species:S:1:pos:R:3:forces:R:3 energy=-97200.24975958193
C	0.00013676	-0.5415835	0.0844518	15.784233066249998	45.7298270675	36.222736573
C	-1.31650419	0.20374217	-0.1107763	-1.554528171955	-32.2874878455	22.53584233925
O	1.20441537	0.27224016	-0.00772969	15.14956611355	18.22009783675	0.45504527448000004
H	0.01952287	-1.14783915	0.99607032	-1.70944990929	2.56687061885	11.440377997099999
H	0.19477513	-1.20618215	-0.69573026	0.0112071917379	-32.7671431255	-37.3925881285
H	-1.34868468	1.14411487	0.44520764	0.40961638497999997	6.3552018565	-6.4815725744999995
H	-1.51357387	0.24307812	-1.16547165	-6.1962699243	18.2641200449	-16.32854956765
H	-2.11454789	-0.43923937	0.32514437	2.95299311925	5.79282910105	-3.4186507668
H	1.32934186	1.10894619	0.53116086	-24.790568060499997	-31.862485595	-7.17621949755
9
Properties=species:S:1:pos:R:3:forces:R:3 energy=-97199.87273185296
C	0.02528284	-0.48309673	0.21822902	-13.6860410008	-30.1806942695	2.258265484975
C	-1.35533266	0.1752954	-0.19847099	35.815951999	-9.46864889105	22.15280992575
O	1.19982012	0.30610907	0.03656047	18.54146687435	-1.70207982143	-46.131077157499995
H	0.20308429	-0.70224241	1.29253886	-29.011765128	-3.27915870965	-1.819975860805
H	0.00828283	-1.51821209	-0.30051965	14.598838834850001	29.681437692	9.49890407025
H	-1.79469359	0.77456136	0.59896362	-0.33826535604499997	6.53389650865	1.735238298695
H	-1.19938471	0.76365225	-1.08692937	3.4098417131	13.768942959050001	-11.57968557145
H	-2.04383523	-0.60248951	-0.47650281	-12.858174435799999	-14.3778515008	-0.27694557936
H	1.62936224	0.09203632	-0.84332679	-16.495644863749998	8.9541033015	24.016893317999997
9
Properties=species:S:1:pos:R:3:forces:R:3 energy=-97198.58846106706
C	-0.00508467	-0.52794615	0.26572831	21.53862056385	-15.71814210315	-2.5807298892
C	-1.26885526	0.18173392	-0.2451794	16.93070142685	-19.42555457265	55.440079245499994
O	1.19004822	0.27485901	0.01856282	-15.5369569332	17.77314213305	-28.155764936
H	0.11148228	-0.70218098	1.4181591	-22.126867032	0.8686833845	-41.8261710195
H	0.01809401	-1.55531529	-0.29229957	11.0990386964	30.0990606305	20.40778712055
H	-1.51620034	0.94540819	0.46334915	-11.676331498299998	18.63467680905	13.001586752449999
H	-1.21476659	0.63688167	-1.18935462	13.28642819565	11.28511266055	-40.4563862295
H	-2.05376691	-0.5400581	-0.27086829	-23.6601497035	-14.08883613425	-0.37366529933000003
H	0.94447624	0.97632168	-0.66850276	10.1001104551	-29.4367673785	24.500468857499996
9
Properties=species:S:1:pos:R:3:forces:R:3 energy=-97196.72334364871
C	-0.02247215	-0.53343895	0.28143824	35.934943405	-58.41140534299999	-22.3816838995
C	-1.21367726	0.14972972	-0.26109809	-12.87309448225	7.7762959252499995	43.4242532745
O	1.1668886	0.29283337	-0.02519974	-16.25429524065	-45.1325640025	11.2241641555
H	-0.08641286	-0.85440087	1.40535147	2.100108380535	15.7171043874	-38.843775953999994
H	0.04922973	-1.47644475	-0.38268848	13.04000529555	17.75778393995	29.7526941735
H	-1.12516715	1.12143331	0.1692962	-14.682524845000001	35.5021006355	8.8307765497
H	-1.28705281	0.27333115	-1.30345988	5.33840184395	-3.78477994375	-37.920439540000004
H	-2.12099437	-0.28376678	0.130555	-15.5233513267	-6.3486757774500004	2.86531766855
H	0.77702217	1.14240888	0.13857539	2.85115861365	36.925154834	3.0275702911499995
9
Properties=species:S:1:pos:R:3:forces:R:3 energy=-97199.66743362803
C	-0.04006878	-0.46741662	0.24200107	42.7624212295	-52.464602285000005	59.089840839999994
C	-1.2646363	0.13202307	-0.2484086	-21.9537760449	37.343469583	-32.6269361975
O	1.16007822	0.32629058	-0.02373438	-20.566511509599998	1.86300877994	-1.80875700053
H	-0.23363719	-0.68167456	1.37813961	21.77358247	7.5276822919	-31.964412342
H	0.04612186	-1.47628816	-0.26597855	6.6310958839	12.001989761	13.1022451802
H	-1.25895856	1.237415	-0.0269103	-11.35932086685	-18.9587900283	2.61086976665
H	-1.18729083	0.04792558	-1.3512282	-16.58207505555	4.321970797	1.998974909575
H	-2.14868168	-0.43725252	0.15461458	13.044709606949999	16.511694867350002	-10.34194434555
H	1.91408999	0.12562335	0.56446002	-13.668814919349998	-8.1816738179	0.054250395789000004
9
Properties=species:S:1:pos:R:3:forces:R:3 energy=-97196.73050319558
C	-0.0578425	-0.52674756	0.40470544	34.6788461405	53.46080940499999	-70.9776818685
C	-1.17906111	0.12690368	-0.29767256	-39.8522050595	13.074849484400001	6.8758584388
O	1.08897829	0.36503865	-0.08313931	-28.5000559615	-16.927588279600002	17.6405681809
H	-0.11321766	-0.40315124	1.42473343	-3.92535583735	-2.75785643755	63.0891973405
H	0.18856263	-1.50537192	0.08127103	-0.35372270865	-32.6864319005	-5.1212886487
H	-1.40441337	1.07306227	0.20344532	-5.58763810675	2.139753734255	6.5302529733500005
H	-0.91399249	0.45088274	-1.27339391	16.3906972109	0.98109336661	-29.5529915425
H	-2.11483833	-0.40858388	-0.44577938	-6.268771664699999	-10.838548982799999	10.3041484319
H	1.81020984	-0.23815591	0.05401108	33.5336691595	-6.57517453515	1.22542238693
9
Properties=species:S:1:pos:R:3:forces:R:3 energy=-97201.89968749942
C	-0.00862166	-0.44919549	0.27665114	14.4906166123	-22.605461535899998	-25.6668613605
C	-1.33006069	0.16190375	-0.27011221	39.2355713005	-14.794459783899999	3.7252381200499998
O	1.22903297	0.21991286	-0.02472617	-0.65056014592	-5.3141423557500005	3.37776476625
H	-0.18651324	-0.69883777	1.34690562	8.567081447449999	11.0378826482	0.09748025031299999
H	0.32342866	-1.41225671	-0.1854674	-27.24810956	0.4564565679	2.35489988165
H	-1.50660346	1.01673868	0.34985672	-11.71016103175	21.7977035961	9.0321395259
H	-1.3319179	0.46300324	-1.33012448	1.7102385732599998	-7.2263757588	3.4184662840000004
H	-2.06095329	-0.59511696	-0.02394812	-18.006904901	-4.85814699485	-5.0720778618