9
Properties=species:S:1:pos:R:3:forces:R:3 energy=-97190.45963165541
C	0.05988035	-0.60959125	-0.0607187	-39.2415669915	7.558721523	-3.1265453133500003
C	-1.31679525	0.29565536	0.09098441	30.496390460999997	-53.08123604399999	-47.804797360500004
O	1.18055431	0.22763895	0.01370588	7.39902859925	34.455391349	13.675202636300002
H	0.2921609	-1.55311971	0.47648838	-13.6028853787	11.1197930114	10.8764140775
H	-0.04260048	-0.87642451	-1.1061752	-2.78908015145	-17.684198363100002	-14.894241918350001
H	-1.45075011	0.92664763	0.94507954	9.68504721545	15.0406059598	16.606726569699997
H	-1.09944021	0.80332963	-0.90461088	-26.071570502999997	8.7309713549	28.820364223
H	-2.25728054	-0.31314037	-0.00200446	17.367671999	6.2228354475	-3.6026723598
H	0.79505764	1.13869801	0.01301529	16.740614961800002	-12.204021487350001	-0.523333888935
9
Properties=species:S:1:pos:R:3:forces:R:3 energy=-97204.4975334722
C	0.02114414	-0.59548066	-0.13755915	-19.8033984074	39.9813430195	29.472280317499997
C	-1.30305345	0.2585064	0.08188365	-2.16322686452	-3.20139920945	-50.2847073995
O	1.20864882	0.24265301	0.07219095	-17.28237176435	-9.708499591399999	-9.8180362539
H	0.03617559	-1.34182433	0.67560094	5.00458021735	-0.220470321003	-5.1734511604
H	0.01638734	-1.10258492	-1.10275064	2.8286286517	-1.28178188233	-8.3470165274
H	-1.22817075	0.88230225	0.95701712	1.2136662205	0.905743672985	19.4001190066
H	-1.53971668	1.01545335	-0.76511975	14.47708018685	-25.765329055	18.47265478995
H	-2.21441854	-0.39179511	0.11420691	13.125582254400001	6.360298193849999	4.87396639495
H	1.01877148	1.1006431	-0.36143386	2.6102932579	-6.8965205123999995	1.28347912409
9
Properties=species:S:1:pos:R:3:forces:R:3 energy=-97193.18424567602
C	0.00241025	-0.4546532	-0.14954691	-4.9538705077000005	-96.88736871449998	-11.0132541944
C	-1.2882505	0.2195134	0.05975874	8.053089306299999	-7.76873213045	57.98755611
O	1.15218216	0.23466381	0.10096889	60.4907571025	48.7239829115	-30.7239961155
H	0.00627465	-1.25140822	0.65446501	0.8767083863	1.4123680323099999	-15.029398629700001
H	0.0546296	-1.03834485	-1.13265875	-1.57133686107	13.7519013604	16.6277114882
H	-1.11321366	0.57602839	1.12191478	-13.330265921	25.2125724655	-25.626505748
H	-1.53272239	0.88935942	-0.7404856	-17.32323470455	18.6093796051	-2.014093275035
H	-1.97507999	-0.59102726	0.33012531	-16.53489357945	2.16584652028	-21.42608605585
H	1.59229745	0.49093414	-0.76615318	-15.6872181738	-5.11711472535	31.1197117215
9
Properties=species:S:1:pos:R:3:forces:R:3 energy=-97203.50239750546
C	0.01056403	-0.53775338	-0.14919118	-1.7368617473349999	7.21888114505	-9.84190371615
C	-1.31670049	0.21827447	0.11605951	7.36240876345	7.35959540075	7.5405960879
O	1.18400963	0.29891593	0.08547765	-14.36906550745	-6.1406483601	-1.509071610035
H	0.0684818	-1.46715198	0.47401048	-0.069127549988	11.00852682265	-4.335207437899999
H	0.00167691	-0.85133148	-1.23530112	-0.948100923865	1.47393455474	18.15432971855
H	-1.40178762	0.90778335	0.99670398	10.1124708027	-24.0867661785	-0.5628293503799999
H	-1.59836288	0.89501245	-0.67122569	7.217243860199999	11.71892396475	-23.733942823499998
H	-2.13021076	-0.50182163	0.08129126	-7.2060826508	-8.84389788885	11.8007190262
H	1.82903056	0.07814549	-0.60749712	-0.27505924273	0.30620916351	2.3415018183000003
9
Properties=species:S:1:pos:R:3:forces:R:3 energy=-97192.10461082179
C	-0.04314831	-0.61028659	-0.14334181	32.871837114499996	47.3149955265	7.413349076599999
C	-1.32978583	0.21962329	0.12198405	-19.7547871896	-4.8552183304000005	-36.222736573
O	1.22209565	0.36418527	0.06461147	-20.7452753428	-50.653442395999996	-11.58752609045
H	0.15186561	-1.59643627	0.31869927	-7.34220789685	12.226113302649999	13.471695047549998
H	-0.02898403	-0.77058083	-1.19978641	-0.77655267418	-8.98839404195	-24.470721006
H	-1.43811317	0.76979974	1.04092953	17.7670311403	10.6181381575	16.93305358255
H	-1.42842237	0.96280188	-0.76252893	1.8051342195450002	-21.945704922399997	31.898920948
H	-2.31314833	-0.36623871	0.16193255	30.173314957499997	1.0922765381	-11.975493418849998
H	2.01704389	-0.12651424	-0.33034642	-33.952675719	15.271670666799999	14.43667845365
9
Properties=species:S:1:pos:R:3:forces:R:3 energy=-97204.02902049212
C	-0.02110619	-0.55593012	-0.19513412	23.319087127	-5.14211214475	3.6099824907499998
C	-1.27637069	0.19944402	0.14131387	25.426572513500002	24.1024472165	19.23779720295
O	1.1500986	0.34565901	0.00436321	-21.4625905899	-18.1750148525	-6.34000508585
H	0.05254429	-1.36364134	0.56243447	3.3012966456500004	-3.1471151455500004	-9.86786967025
H	0.00569517	-1.01406199	-1.22973291	-0.70968688332	11.02328544665	16.828244291799997
H	-1.11582866	0.58148591	1.19339076	-17.14207259495	-14.045851641850001	-14.91836304445
H	-1.33915499	1.10711525	-0.4380779	-1.4969902926699998	13.126689151199999	-14.616941209599998
H	-2.16670948	-0.37122194	-0.05425742	-15.01203418615	-10.5172260659	7.5992154975999995
H	1.76737561	-0.18002873	0.53831088	3.8055111984	2.7789566578000002	-1.486398673915
9
Properties=species:S:1:pos:R:3:forces:R:3 energy=-97206.68275944941
C	-0.01419968	-0.55338956	-0.15367372	12.10596887915	17.758199026249997	-34.4685357485
C	-1.27904562	0.20383431	0.17980885	-0.118157543744	12.102901852599999	-2.055578844685
O	1.20260096	0.27716072	-0.05706071	-21.0566361885	-16.6225920905	1.8876118673550002
H	0.08989451	-1.49686163	0.37331223	3.8282948242	-8.5247657052	10.227103802550001
H	-0.08175224	-0.78678216	-1.25215392	5.2260748791	-0.84708506069	16.2061221695
H	-1.46018431	0.44556096	1.23200679	2.48998741195	-7.10620827495	6.8957595208499995
H	-1.21149854	1.16899917	-0.32405266	-0.968500109475	7.65735063995	-5.409496903
H	-2.16113029	-0.28372012	-0.24076183	-4.6315790561	-6.4960544743	2.4199761893500003
H	1.14477975	0.71716065	0.80596651	3.1351237635499998	2.1253917482749998	4.4033507721500005
9
Properties=species:S:1:pos:R:3:forces:R:3 energy=-97200.66989702098
C	0.02827102	-0.53692027	-0.21446019	-27.929773506	42.038095635999994	-11.865887575299999
C	-1.31569049	0.24205913	0.19377416	-2.095408681205	-33.796095942499996	2.74660298675
O	1.22245887	0.22641892	0.01489314	-3.1737037291	-0.87698049843	6.57134651705
H	0.01360931	-1.46340443	0.3592667	10.00078952765	-2.25072244449	10.5956773766
H	0.00262656	-0.86080135	-1.2777846	-4.3615884783	6.3279906435	1.9262195053250002
H	-1.42547151	0.2036539	1.28811512	4.7821170209	-2.4560886974500002	2.7469488920000003
H	-1.52845445	1.32870722	-0.02101524	13.22102904305	-22.2034735147	-15.76421668245
H	-2.12695817	-0.45592926	-0.18058749	7.4987646130000005	23.9756152915	2.6990756054
H	1.00012409	1.16583433	-0.15790219	2.029931123415	-10.67844097275	0.30406455096
9
Properties=species:S:1:pos:R:3:forces:R:3 energy=-97201.49902083627
C	-0.00224857	-0.53195131	-0.28051577	-0.126520149068	9.33785058585	4.04434724335
C	-1.31861063	0.17824303	0.22605017	34.4546995385	18.492901777249998	-5.91020628255
O	1.17215875	0.28392295	0.08939977	-16.93743504905	-9.90139941915	2.75172238445
H	0.16111789	-1.54956998	0.13105696	-4.921539897	7.717376731	5.1838744386
H	0.00144461	-0.66174349	-1.36085821	-4.49144130915	0.59988733283	-10.96411258855
H	-1.08820162	0.40588696	1.27719747	-12.13175035045	-10.00005159645	7.2542096012499995
H	-1.2361172	1.23610167	-0.18850354	-16.839267139100002	-25.596527292999998	-2.61474390545
H	-2.31625281	-0.3431362	0.08303559	27.13741988	12.643205853100001	0.330318759435
H	1.61038789	0.61896651	-0.71198675	-6.09764080735	-3.2440839173	-0.2044279273185
9
Properties=species:S:1:pos:R:3:forces:R:3 energy=-97197.73231351942
C	-0.02676463	-0.44536431	-0.30730178	42.0743003855	-40.2285499715	-21.95241548425
C	-1.20433135	0.18480865	0.24574904	-49.1035562725	11.49565365605	-16.07645382145
O	1.08497863	0.28118443	0.0735167	50.937315304500004	32.0079964035	3.9495461445
H	0.04661455	-1.45398043	0.14306603	-0.412224510565	-5.9510000417	1.8747603342999999
H	-0.05894901	-0.6643599	-1.40244439	-5.04797979605	10.43187971055	2.7264713012
H	-1.04905544	0.42879816	1.29541239	-3.1547942421000004	-1.551816274795	6.732722846350001
H	-1.60332848	1.09739586	-0.30323581	9.29500445555	-22.9290904878	10.71561425695
H	-1.82796986	-0.71830947	0.11277692	-30.052248119999998	18.7502783436	11.629934074100001
H	1.9392827	-0.04958387	-0.27906491	-14.4419592738	-1.9330200025399997	0.37568307995500005
9
Properties=species:S:1:pos:R:3:forces:R:3 energy=-97196.80756973225
C	-0.00256796	-0.51123077	-0.33767579	-9.2436029354	13.60581404315	37.0360751175
C	-1.31345585	0.14221618	0.27385525	0.8266005517849999	20.961881210349997	10.5169493417
O	1.17731238	0.34645143	0.0476474	-26.503260255	-31.6939144365	-1.4780485211799999
H	0.18556076	-1.5821993	-0.06689352	-4.804808405299999	15.15938982265	1.777743135815
H	-0.06192529	-0.41891524	-1.39767869	-4.71595687675	-5.4318654425	-27.9844265355
H	-1.13530428	0.51886003	1.32407037	5.69551442405	-4.748126065	-20.55897077515
H	-1.50776557	1.0230986	-0.38225422	3.2208852051999997	-1.98464290205	12.31162108045
H	-2.3504046	-0.30538708	0.37641177	30.282621016500002	-15.39672694485	-13.7474737732
H	1.86279332	-0.33909772	0.15051072	5.26133415425	9.45347518075	2.137383130275
9
Properties=species:S:1:pos:R:3:forces:R:3 energy=-97187.31626335552
C	-0.0774043	-0.55931847	-0.39915508	38.9002738115	53.866210358	92.5400315325
C	-1.3545161	0.18448425	0.31368348	24.5359817965	-42.6558824125	-25.323492748999996
O	1.26889841	0.36611197	0.02524801	-47.192545067999994	-36.65212029	-19.13960623265
H	0.14195395	-1.60106532	-0.04689468	-9.2386218998	17.34906229655	2.9022603492499996
H	0.00434742	-0.56676755	-1.45078516	-7.7401372964499995	9.3678059805	-33.877268374500005
H	-1.17066921	0.41524439	1.40338351	-0.32266502927	-9.9272961922	-23.563988044000002
H	-1.64307884	1.11764993	-0.21904686	5.7244090426000005	-11.778304366	4.0068280539
H	-2.15640152	-0.60677318	0.18730883	5.780076727499999	22.461680253649998	8.759889033799999
H	1.74405794	-0.10466071	0.74375034	-10.40812755005	-2.0877572570750003	-6.29086348
9
Properties=species:S:1:pos:R:3:forces:R:3 energy=-97188.94032447842
C	-0.02120129	-0.3568444	-0.34750126	24.833460311499998	-10.74554659125	-53.2853201415
C	-1.2710014	0.12781465	0.32222212	-20.2587480785	-46.2491461495	7.9957612762
O	1.17082196	0.22189971	0.06730739	35.883749427999994	18.255103448049997	34.7614021935
H	0.05327184	-1.45937321	-0.16860299	-4.67218833245	8.35654045195	3.0000131728999997
H	0.16786431	-0.26891297	-1.48422231	-44.6160121625	-7.015050711399999	19.8024759934
H	-1.18377157	-0.11801996	1.39589449	3.259811076	2.9875605839	-0.92969184646
H	-1.80946842	1.08064697	0.27340724	13.500635786799998	5.0984589022	-17.226819381200002
H	-1.86814551	-0.72273044	-0.06935054	-25.718516544499998	14.8128158225	7.3282102644
H	1.45237411	0.69373252	-0.71429221	17.88641457225	14.623259745499999	-1.57972160433
9
Properties=species:S:1:pos:R:3:forces:R:3 energy=-97202.31548820905
C	-0.01853929	-0.38063438	-0.44263472	-5.05222290045	-20.6137852271	65.1212753825
C	-1.285399	0.06828155	0.35692887	14.264832725449999	23.297641001499997	-8.45823659545
O	1.18331579	0.24786708	0.11341805	-23.178418992	1.782438223075	-9.75833300775
H	0.19875161	-1.45734782	-0.32243277	-10.545405813599999	-1.155616401445	-4.631440694
H	-0.29568217	-0.1733123	-1.44542707	12.144202939449999	9.42423465695	-35.195628584
H	-1.12774606	0.23605399	1.43093551	6.189397940000001	-9.621700434	0.71446498784
H	-1.49754108	1.08639057	-0.03788669	-6.472394555199999	-6.37597923185	3.8751534554
H	-2.18332905	-0.55153046	0.2171035	5.235506562249999	-2.9630243715	-3.8121064585
H	1.65919477	0.64578436	-0.62134037	7.5064667699	6.315930080449999	-7.9891660160999995
9
Properties=species:S:1:pos:R:3:forces:R:3 energy=-97182.86612728408
C	0.00504501	-0.47511243	-0.51434674	6.14362314525	12.52253104155	110.006171226
C	-1.31930198	0.1222986	0.40422363	29.23591173	-36.3493378945	-11.0633873953
O	1.15843703	0.28641908	0.12827009	-26.8872150825	-27.7667368315	9.0147981427
H	0.27498337	-1.58612642	-0.55371301	-20.3435179251	21.7974729926	21.1581478492
H	0.18040202	-0.18943259	-1.4764093	-25.311962574	25.457703986000002	-76.2866356455
H	-1.00542691	0.19047535	1.51015416	-3.7984547313	-7.7506297557	-36.439042656
H	-1.58855373	1.13396489	0.08622737	7.9226599666999995	2.8017172232500003	-5.7120025743
H	-2.26807773	-0.4775922	0.32724464	20.0310040619	2.26593766342	-0.45115038136499996
H	1.67818893	0.58493604	-0.61734551	13.147120621300001	7.016803298	-10.34512667385
9
Properties=species:S:1:pos:R:3:forces:R:3 energy=-97183.40084860446
C	0.03152888	-0.49152916	-0.50241125	-28.233478315499998	84.521256027	-33.562955804
C	-1.28749104	0.13994276	0.39316411	50.435752692	-63.0942706175	-34.769242712499995
O	1.10377845	0.30204576	0.13181506	-8.29123354075	-32.302477073	13.39232132285
H	-0.04080582	-1.60193053	-0.44247244	19.8297794478	9.6156586223	7.2848568064000006
H	0.19363114	-0.12870433	-1.65323846	-30.561651251500003	-27.9023316895	49.916664213500006
H	-0.76841458	-0.04616226	1.34423008	-11.9919815691	18.85734754865	8.228486328399999
H	-1.53726197	1.14750755	0.11079364	4.03945844915	14.211494135899999	2.9232452677499996
H	-2.1714059	-0.51434652	0.37549619	0.8590234038850001	0.47264032153	-6.148488879099999
H	1.76874274	0.53718695	-0.52535926	4.0333935771	-4.2914388936000005	-7.443973221399999
9
Properties=species:S:1:pos:R:3:forces:R:3 energy=-97194.53374012526
C	-0.01068693	-0.37855593	-0.35119047	-38.080017162	22.509714962700002	-36.045171878
C	-1.27364751	0.03931802	0.36295844	-24.6056240535	-28.0374653405	13.43987176455
O	1.18426171	0.36595883	-0.00066069	-9.9621173207	-50.045110363000006	-4.1890048189
H	0.01148513	-1.45803907	-0.23796018	21.71844517315	-13.532067043849999	3.55795834115
H	-0.3546521	-0.24349075	-1.4626082	30.491778391	2.2166023506299997	27.7109307845
H	-1.5563935	-0.3922553	1.37748386	18.41689486365	2.344776388	-20.784270394649997
H	-1.32159824	1.09732593	0.48997218	-5.92962309725	27.063857363500002	-5.22402250795
H	-2.02433514	-0.33569466	-0.37406666	-7.438992185799999	12.9398541955	17.01653204955
H	1.75052578	-0.4359564	0.0774382	15.4030224204	24.543130505	4.44416759165
9
Properties=species:S:1:pos:R:3:forces:R:3 energy=-97196.53305171593
C	-0.01634433	-0.41451562	-0.35529293	10.0419522524	33.4040699925	-59.897414297
C	-1.28683029	0.0467511	0.36543232	1.8777074470300001	-23.331309112499998	16.29746421585
O	1.14784576	0.33466963	-0.01013556	20.1798355608	36.1394887095	23.4244729265
H	0.2768163	-1.4417181	-0.37926576	-11.2695469243	-29.306937608	4.56149865245
H	-0.12033254	-0.05887308	-1.46272141	-8.6163614154	-22.59815140495	28.7255861845
H	-1.40986052	-0.3742378	1.40982491	2.9576282496000004	10.445646739499999	-20.636822516749998
H	-1.21285537	1.11769523	0.39045376	3.1978248552	21.1679715583	10.465040493850001
H	-2.21980094	-0.10974711	-0.21347079	9.474575401	-11.651679984149999	1.494077770465
H	1.99360972	-0.06463886	0.29524292	-27.734221738	-14.2562773356	-4.4278178035
9
Properties=species:S:1:pos:R:3:forces:R:3 energy=-97195.88630759674
C	-0.03882787	-0.41963617	-0.48452882	13.633186678600001	1.12164158779	19.7912686633
C	-1.13354141	0.06360896	0.34929433	-83.7332838675	19.79193741345	31.919214056
O	1.08637567	0.35305534	0.04027653	22.0530277913	-7.914196818249999	-18.096817205649998
H	0.17315347	-1.4465883	-0.17966248	-3.30909104395	-13.814902236600002	-16.83117295625
H	-0.29414222	-0.3378585	-1.57780959	22.79448722485	5.6356728158	15.739127021649999
H	-1.13147244	-0.26367773	1.39944704	18.499842942599997	-0.581897953795	3.97087696825
H	-1.26766493	1.17613735	0.40793008	10.05548867785	-14.0237828869	-8.9324726932
H	-2.14742985	-0.31486387	0.11005296	1.089663800445	-1.03501307698	-15.454124155999999
H	1.39218225	-0.17637449	0.8121838	-0.993465244385	10.801029793349999	-12.069302922650001
9
Properties=species:S:1:pos:R:3:forces:R:3 energy=-97193.74457367022
C	0.00057972	-0.2644652	-0.36260778	-52.2429923215	10.643919628799999	-34.4141133225
C	-1.31115214	0.02180351	0.36670642	-5.7072290818499996	-28.784390077	25.3592362915
O	1.23644438	0.20337977	-0.03627317	59.432517641	-0.27765583814	8.2296393459
H	0.05908419	-1.34326582	-0.48674643	4.65576936325	-12.02530377485	1.57776147458
H	-0.1767083	0.160482	-1.37309815	-6.019581522599999	-9.4861516967	-4.95094184325
H	-1.39435076	-0.12734951	1.44493569	19.7217647684	1.474047550455	13.673334747950001
H	-1.87097762	0.90729672	0.19307733	-0.497925995305	34.4182641855	-13.456037069899999
H	-2.01074217	-0.76523119	0.08296233	-3.7070204435500003	-8.14369342145	-14.3666902914
H	1.38306592	0.8298237	0.66580673	-15.670038213049999	12.31812409915	18.41232891435
9
Properties=species:S:1:pos:R:3:forces:R:3 energy=-97199.30760223267
C	-0.05366591	-0.3946064	-0.49200595	21.2126163959	49.0745002315	-6.9671313041000005
C	-1.21557347	-0.01032766	0.40592004	-36.5693336335	12.52575949055	25.254772905999996
O	1.1702856	0.28204286	0.09861388	-16.823332437250002	-44.468425922499996	-5.13796128175
H	0.19404996	-1.45166043	-0.69985776	-3.5004688885999995	4.2556492304	13.962557657649999
H	-0.24513462	0.07813577	-1.49517076	3.7572920065499997	-8.942042738449999	10.872124852399999
H	-1.25501451	-0.48677571	1.45681805	3.9054086346	9.87119036065	-35.699727835
H	-1.17468267	1.10358568	0.57703637	9.42764758875	-16.89588029835	1.2957287820099999
H	-2.24981183	-0.03910197	-0.06883066	22.11909569405	-17.75944428515	6.223896223600001
H	1.27759941	1.14257623	-0.3095222	-3.51571177995	12.40118747985	-9.772422881599999
9
Properties=species:S:1:pos:R:3:forces:R:3 energy=-97183.94189053615
C	-0.06081133	-0.21544182	-0.39840331	34.8255099665	-37.6517864625	-57.3702305405
C	-1.32726529	-0.06015488	0.43481956	-17.7758863147	17.5209310851	-8.75631467955
O	1.26766158	0.22636475	0.02809367	-24.094145490499997	-9.94147830745	31.0602160185
H	0.27906537	-1.28920313	-0.49061051	-31.9508067355	5.08768971875	5.90112050465
H	-0.34431903	-0.0287037	-1.56379124	18.94433118885	9.5692611981	54.436954020499996
H	-1.44565637	-0.52944331	1.465337	8.0004194669	-0.19309445710399997	-33.2085182245
H	-1.72920759	0.9638892	0.54240744	18.4700950911	8.37042278265	4.84472587115
H	-2.04725914	-0.33978392	-0.3786742	-3.81056141505	-20.9385210758	25.1263267565
H	1.70477287	0.91260836	-0.4545488	-2.55414130565	28.214799432	-22.040805805799998
9
Properties=species:S:1:pos:R:3:forces:R:3 energy=-97197.9783859022
C	-0.0326786	-0.26031514	-0.43074962	-17.78836196405	-9.607172413499999	4.87392027425
C	-1.33405719	-0.04753915	0.40520467	23.728638943	17.0663654659	-14.0501639273
O	1.26930432	0.23267937	0.05751438	-22.4600429688	-0.0808253737325	-3.3970662791999997
H	-0.08095458	-1.36908097	-0.65676785	23.3783522265	20.689699899300003	-0.63486065964
H	-0.16150246	0.3432435	-1.31084068	-11.5223806017	-5.9523836627	-26.716799096
H	-1.25748795	-0.41642453	1.38967003	11.973971435749998	-8.4925273359	39.2535583735
H	-1.60786476	1.00536192	0.44161263	-3.9503763171000004	7.1023571965	2.37920549055
H	-2.17341252	-0.62547571	0.03175297	-4.74215343435	-3.151888638	-18.52103540425
H	1.41824334	1.03588908	-0.50397801	1.41729833514	-17.564146180999998	16.8565162809
9
Properties=species:S:1:pos:R:3:forces:R:3 energy=-97194.86516693451
C	-0.06404194	-0.33353811	-0.55742956	31.443709638999998	-18.7058179888	-7.70190323615
C	-1.15027812	-0.00576679	0.41500301	-5.0145192282	23.567216493000004	-15.41411444875
O	1.13631859	0.23476811	0.10881175	-27.988116191499998	15.043188719	-11.38524070025
H	0.06135219	-1.42338548	-0.88728611	3.96737179505	20.296982138799997	30.266478771499997
H	-0.13454838	0.11746954	-1.54168186	-10.24352277175	16.43545735025	-9.8634190227
H	-0.72310048	-0.13063427	1.39277115	-6.884183225149999	-21.00993897975	20.9625499605
H	-1.33735026	1.07875318	0.39942252	0.23305712124	7.0300399389	-6.7738163900499995
H	-2.11481383	-0.41617733	0.20726202	-19.1597379182	-19.68604428625	4.539130112950001
H	0.68021392	1.08910051	0.39947072	33.685175658999995	-22.99382089025	-4.6135919831
9
Properties=species:S:1:pos:R:3:forces:R:3 energy=-97196.20087014145
C	0.02516203	-0.41711017	-0.28306542	-29.123607825500002	-46.440316451	22.737551220700002
C	-1.34404667	0.07043238	0.30882024	30.127424860999998	23.5494600235	-24.664427946
O	1.22250152	0.30064796	-0.07097359	2.8932898730999996	1.821949826765	-3.4362919345500003
H	-0.07360375	-1.47526813	0.19050797	33.855361042	16.80428458815	-23.132067688499998
H	0.10108193	-0.45176119	-1.38206673	-23.511641049500003	-10.83954057785	2.000423099555
H	-1.55180555	-0.15780802	1.35714967	7.812385373000001	-3.5792430441999996	2.288188595135
H	-1.34971964	1.13129828	0.14533435	-9.40361870405	26.870381026999997	5.324611754649999
H	-2.14065143	-0.30579207	-0.31440489	-11.019549669949999	-11.728678492799999	-6.2768889079
H	1.32443911	0.61657835	0.82317265	-1.655071297955	3.5772137334000003	25.297895760499998
9
Properties=species:S:1:pos:R:3:forces:R:3 energy=-97199.94638776388
C	0.00021697	-0.41206765	-0.26800166	17.7604358802	-27.156329366999998	1.89082417411
C	-1.34082749	0.09888177	0.30660227	-8.18723136225	-5.01892375505	-36.596544846499995
O	1.22908029	0.31297882	-0.07225103	-6.7712566912	19.95109994915	11.49496184555
H	0.29567951	-1.40263215	0.09104725	-18.35583105685	-14.3610174453	12.509179098899999
H	-0.08213113	-0.65453801	-1.35148484	-0.266801331395	20.99453466595	4.2227651713
H	-1.63865538	-0.21497253	1.32734424	13.7788358492	10.212967808	-3.0485552096500004
H	-1.46136119	1.20138777	0.09087001	0.354236954455	-20.7990059583	10.78622504865
H	-2.06729858	-0.44917501	-0.3663693	3.71522992815	14.687159975350001	13.48580798175
H	1.41796768	0.28235249	0.89549139	-2.01545152965	1.54908823539	-14.664814496200002
9
Properties=species:S:1:pos:R:3:forces:R:3 energy=-97197.41312483791
C	-0.00694944	-0.5299787	-0.32800131	37.065592365499995	-31.326563060999998	29.016607801499998
C	-1.22737605	0.15330325	0.2278917	31.7939963555	-22.509645781649997	-1.54898215778
O	1.07265818	0.33350096	0.12342251	15.7763233662	0.0786867568735	-1.785403784085
H	0.17424623	-1.62551928	-0.01202867	-6.85392804595	28.6148965045	14.53330132015
H	0.11117395	-0.71219861	-1.36502139	-13.032533742150001	12.862509781600002	-41.721707634
H	-0.92915799	0.41463165	1.22823889	1.0924149001999999	11.172877937099999	16.367337076349997
H	-1.32793673	1.01791367	-0.37262858	-19.5105319624	29.27742036	-11.212956825400001
H	-2.06980469	-0.47446998	0.33008649	-32.656222842	-16.5016636151	-7.8558310724
H	1.72212385	0.57285683	-0.57486263	-13.712099196299999	-11.67091231605	4.079698759899999
9
Properties=species:S:1:pos:R:3:forces:R:3 energy=-97203.5675619037
C	0.02144182	-0.52921251	-0.12353939	-6.08606451165	-22.2303618828	7.3999048925499995
C	-1.29952125	0.1939831	0.0680157	-2.063723760305	24.383091676000003	35.636773079499996
O	1.15595477	0.3014443	0.08396176	12.3256187129	7.98130243675	-3.3232500988499996
H	0.08499197	-1.45726172	0.52533994	-0.8780320503900001	23.38780697	4.1048806621
H	0.01664404	-1.01007671	-1.07593475	6.135575083100001	-4.3429557155	-34.205878362
H	-1.17934537	0.81539979	1.00134046	-3.8406090511	-8.51284350425	-11.4315228227
H	-1.62020624	0.93580488	-0.70142976	8.145953335749999	-15.3880793136	0.264559865375
H	-2.1117495	-0.51239208	0.31164454	0.87170429035	1.47561796029	-8.056848143349999
H	1.68948823	0.43671259	-0.73209108	-14.5268674825	-6.8086144582	9.5067215289
9
Properties=species:S:1:pos:R:3:forces:R:3 energy=-97200.34590786642
C	0.01985418	-0.60054968	-0.18715834	-1.1353117632699998	36.888719481	89.348709696
C	-1.25436754	0.23054112	0.10942874	-11.649258647399998	-8.267827285500001	-30.083610196
O	1.12700093	0.30015625	0.10477893	2.4205526981	-22.9873409319	11.04994321125
H	0.09161546	-1.27701207	0.68740995	1.9340323519050002	-13.3776780006	-15.21625664575
H	0.15105212	-1.09083614	-1.12261006	-6.458466103799999	-12.1819066117	-23.777065678
H	-1.09849952	0.91060742	1.00484185	-3.2082020126999997	-17.471950901699998	-24.355188652499997
H	-1.48113351	0.77505001	-0.83833445	-0.733791867175	10.09496799705	15.895499255
H	-2.1468136	-0.42630484	0.23653473	8.00749899435	5.063130446	6.0661634296
H	1.30405994	0.75155955	-0.70480354	10.92301904485	22.2774972382	-29.062036691
9
Properties=species:S:1:pos:R:3:forces:R:3 energy=-97200.05267476187
C	0.02920831	-0.56676792	0.07788711	-18.773869081650002	31.1690608705	-15.3504448224
C	-1.30022389	0.20454923	-0.02854292	-1.840328925715	-7.96202398415	25.42634191
O	1.13374961	0.35442926	-0.07963417	27.564036355	-24.959139219	50.741071725999994
H	0.0376928	-1.21179254	0.97420115	5.95775672425	7.94957139515	3.4827354794499996
H	0.14346658	-1.18643867	-0.77159107	-6.922071380199999	-32.225224900499995	-26.846398263
H	-1.52111877	0.64662666	0.97779713	-6.06678605905	-12.5109316855	-9.5011409242
H	-1.24943393	1.11970971	-0.64850804	2.080751522745	-15.732301158050001	-10.96134534655
H	-2.07630754	-0.55628867	-0.34568775	7.4133721369500005	25.502441065000003	6.23987704615
H	1.81382112	-0.12307271	0.48986122	-9.339303387900001	28.687536607	-23.317934109499998
9
Properties=species:S:1:pos:R:3:forces:R:3 energy=-97198.7816835091
C	0.02228125	-0.48025438	0.2054459	0.08224473827499999	-30.313752489000002	46.224010368
C	-1.35413409	0.17473737	-0.18008773	35.879829168499995	-18.74951735205	-5.2574369551
O	1.20069686	0.29032395	0.03378844	-6.06683217975	18.4665437972	22.59450786965
H	0.14206808	-0.64131722	1.36418004	-21.76290552795	-5.9718004774	-41.162955353499996
H	0.12858331	-1.51323448	-0.31991124	-5.496618905299999	31.5813799285	16.6674675316
H	-1.84081721	0.84286362	0.51188496	0.1809677108495	3.6627215112	17.8712178016
H	-1.16951733	0.74723701	-1.06459449	3.3981270553	15.289058170699999	-22.5819399789
H	-2.01538013	-0.61705445	-0.49812271	-13.8934919094	-10.0814776923	2.4760128398499996
H	1.56544733	0.21215436	-0.83194287	7.697129743700001	-3.9549422664	-36.850439300000005
9
Properties=species:S:1:pos:R:3:forces:R:3 energy=-97196.16652313374
C	0.01042299	-0.48078777	0.21843453	-0.900333714875	16.448693991149998	-17.9402604895
C	-1.32486929	0.16377685	-0.1652398	1.317947429235	16.49057158675	-61.472436202
O	1.20819254	0.27117725	0.02869142	9.889454157849999	31.586222602	-6.08057614835
H	-0.18178984	-0.62122952	1.2441447	21.7219734067	-15.732946847850002	44.105686616999996
H	0.29744665	-1.39707872	-0.28566029	-26.736169789999998	-21.2748793409	-3.8707258682
H	-1.84925238	0.91970566	0.46280886	15.70449037595	-15.68516580265	9.679904757400001
H	-1.11874143	0.75539253	-1.10462492	-9.3492654591	-9.95655977635	6.53730944045
H	-2.0271577	-0.63748748	-0.46613623	-0.860752930135	5.99174768015	4.907842049099999
H	1.36347936	0.45223123	-0.9398345	-10.7034153318	-7.8758474562	24.164940765
9
Properties=species:S:1:pos:R:3:forces:R:3 energy=-97198.96515511276
C	0.04348995	-0.52219697	0.21479473	-46.390044888000006	36.354641775	35.685891625000004
C	-1.29441099	0.17467802	-0.24619781	-4.7477109787	-15.725037147799998	-30.6566598935
O	1.16189274	0.27666226	-0.02117072	23.321393162	16.6534007181	0.805472659115
H	-0.14438707	-0.69283435	1.27828113	9.0302946979	1.426557065665	16.5932593253
H	0.31228306	-1.48718999	-0.11028468	-6.224034585699999	-34.033386944	-30.875272011499998
H	-1.24635654	1.30577534	-0.04340228	-0.2025295993065	-34.132315845499996	-9.9175647245
H	-1.4386814	-0.07700725	-1.3597696	1.67879348	21.140045474449998	27.281777671
H	-2.22156596	-0.24108401	0.25527963	21.54369384085	6.834349808800001	-4.4216376297
H	1.20065373	0.9403447	0.69014806	2.057755741725	1.498851262915	-4.491395188449999
9
Properties=species:S:1:pos:R:3:forces:R:3 energy=-97194.5556181711
C	-0.03954532	-0.45786903	0.25567731	37.0798897825	24.480867560000004	-63.798533706499995
C	-1.33250629	0.10626317	-0.27315355	-1.873572726275	54.97864164199999	14.2298501745
O	1.23977774	0.29058425	-0.01443554	-18.4300162028	2.009887067195	0.41326914442
H	0.0564348	-0.70357284	1.25039125	-14.60654099175	-19.90073614475	57.8563427185
H	-0.01053869	-1.29610022	-0.41286064	24.268251133000003	-33.0055871445	3.7286741122000002
H	-1.33711769	1.21548682	-0.22601158	-2.33603651535	-2.7046562101	7.714609489
H	-1.48077196	-0.07159062	-1.33707737	-1.71507202262	-11.902207626549998	-3.7016243216499998
H	-2.16695821	-0.23939399	0.34185675	-6.069645542450001	-4.76318447355	-3.52281436775
H	1.6080028	0.67088651	0.82109062	-16.215991999299998	-9.2284292251	-12.792360196899999
9
Properties=species:S:1:pos:R:3:forces:R:3 energy=-97194.21891377016
C	-0.05683472	-0.4615602	0.2410892	76.38164428750001	-34.7171263215	10.77538668415
C	-1.33636027	0.13377969	-0.28089027	5.0593946693000005	-14.32963230895	18.2400450395
O	1.24829854	0.2985699	-0.00719992	-25.941740732499998	-3.50090703525	-19.633420567549997
H	0.03765602	-0.7451656	1.34914727	-19.8127147888	7.8150603736	-29.0498147055
H	0.11011682	-1.43898812	-0.38596208	-3.0305450763	30.787873285	29.0622672945
H	-1.46236245	1.17928925	-0.17991353	6.06175890275	34.9887772445	0.469155902645
H	-1.51865873	-0.18665803	-1.28749661	-1.648646684445	0.81173815621	-20.02429350005
H	-2.13348993	-0.26970086	0.32533656	-14.107676440199999	-11.29572042155	7.61796356215
H	1.75248185	0.62627491	0.76744841	-22.9064452241	-10.543145899299999	2.5546947540500002
9
Properties=species:S:1:pos:R:3:forces:R:3 energy=-97192.35118638139
C	0.02418325	-0.48219558	0.39563766	-40.517957364	-21.7996867862	32.8598457325
C	-1.23482634	0.17984741	-0.33139577	67.0740258205	-45.801544756	17.25622132745
O	1.04911783	0.30300547	-0.0486362	73.5346134765	32.963386704	-22.8413227957
H	-0.02833287	-0.48503679	1.57277141	-4.1772440404	4.61596719915	-37.506736861
H	0.0611966	-1.57673374	0.1424984	6.20667014215	12.64687244875	-5.1932369407
H	-1.53220626	1.01138134	0.21478054	-23.738554893499998	37.9935408495	23.670065654000002
H	-0.785783	0.48171443	-1.26398137	-6.00143302715	3.35807122735	-17.0459339958