9
Properties=species:S:1:pos:R:3:forces:R:3 energy=-167504.59584925266
C	1.09271214	-0.09128715	-0.51672533	-23.280316903240916	-20.161090431241934	-7.34672008569895
C	0.08079132	-0.98004497	0.15616934	-21.242683994198106	58.6834041076834	16.91769629403046
C	-1.22559458	-0.11013791	0.47361396	-6.220734711295049	-9.545747340957991	-20.744143386787
O	-1.88131672	0.62231278	-0.25709679	22.97519275073653	-20.375707813405263	13.057417110724781
O	1.92085735	0.46739866	0.12326618	52.02163976324881	33.468086977685175	39.23480255343975
H	1.09222428	0.10082951	-1.58408408	-14.394361340179403	-5.897468884482286	-25.47827037180694
H	-0.03175218	-1.88467469	-0.35636788	-19.156958229606484	-35.64675226430136	-26.01855628981067
H	0.40305175	-1.18448287	1.16656841	14.712023817027971	-6.2249927302761945	9.270076222947909
H	-1.47202329	-0.24980293	1.55099615	-5.413801152493219	5.700268379296321	1.1076979529606434
9
Properties=species:S:1:pos:R:3:forces:R:3 energy=-167494.70442003047
C	1.08103045	-0.1585664	-0.51211515	76.7037517692445	93.01486540280531	-16.083456295701907
C	0.09744676	-0.94746184	0.16391128	-29.497993172419797	-62.56936636742354	0.5097482355592905
C	-1.24452854	-0.16347837	0.41861011	-25.00157479680294	42.512441608002646	15.902110439303096
O	-1.90358231	0.65726003	-0.22359654	30.813173753801376	-37.10006542535479	-12.77489331624388
O	1.94554734	0.49452873	0.13155732	-31.59315802792613	-33.42911727518665	-25.95432397642655
H	1.07302046	0.05090208	-1.65292525	-8.872041362299948	-16.94135922148461	26.04246406127091
H	0.10582262	-1.97929752	-0.4466742	-18.81897814292741	41.35661824785539	31.27747743527059
H	0.45815884	-1.10950049	1.20910127	-1.822005477866418	-5.917885921017717	-14.772531098950184
H	-1.51763374	-0.1165596	1.51248242	8.08882545719674	-20.92613104819611	-4.1465954840811845
9
Properties=species:S:1:pos:R:3:forces:R:3 energy=-167493.41808085525
C	1.09419439	-0.17062945	-0.51193932	67.27614796865487	93.66245349166773	-11.348444113782241
C	0.09650684	-0.94140933	0.17220849	-27.368256521660943	-51.43815860026787	-23.126260475730934
C	-1.26331219	-0.18036448	0.39205732	-2.193460657446082	39.40826445289888	26.418006152523215
O	-1.90676983	0.66601538	-0.20654222	16.67091174491522	-23.10416312001466	-37.872922091404114
O	1.95552242	0.50433479	0.13368079	-41.52063782798809	-42.92181936260443	-41.14359037099479
H	1.0108713	-0.03711024	-1.66326879	4.440783374545542	-7.2946921738367	28.20307713190777
H	0.09846545	-1.94639575	-0.42716424	-17.210445648358636	29.393386694461963	25.732295687949136
H	0.49559101	-1.09042298	1.16671481	-2.504794038799977	-9.86824436244717	13.416030991742534
H	-1.5151359	-0.10232031	1.45672649	2.409751606138137	-27.8370270198578	19.721807087789358
9
Properties=species:S:1:pos:R:3:forces:R:3 energy=-167495.32153931202
C	1.18876991	-0.14380806	-0.5063732	-68.28993918599255	-42.82251730941029	-22.438249672259435
C	0.07680798	-0.92383186	0.20009357	-1.5521896095150831	-33.180261317386375	-16.27216168272564
C	-1.32160822	-0.21785967	0.34769883	20.627041110713993	13.303506434625982	80.67538519867202
O	-1.91548308	0.69556852	-0.18178512	12.601207381702189	-18.257924535709343	-23.603899232603887
O	1.97179454	0.51528983	0.10370028	32.2357949414353	21.301507001677408	2.944240737809929
H	1.00521838	-0.33398402	-1.60674679	27.069066610053177	21.191992407836494	-2.8591078764918327
H	-0.15103263	-1.9619549	-0.32882543	12.963567295030046	40.57269385819858	18.890880976278577
H	0.49321238	-1.13413668	1.22416074	-19.735504754767792	1.5057935348943507	-10.722768322712144
H	-1.57516729	-0.47143958	1.45730474	-15.91904378865924	-3.614790074726906	-26.614320125967502
9
Properties=species:S:1:pos:R:3:forces:R:3 energy=-167503.83068121175
C	1.1901966	-0.14416556	-0.5070592	-47.30535172467696	-39.330304907183304	-28.74994756354549
C	0.07373688	-0.92222812	0.20436746	-16.45285093647871	-16.089038476573716	-26.596541960501327
C	-1.32247675	-0.21999136	0.37226213	1.070501302955385	21.32289483487192	33.26134155426665
O	-1.91586965	0.69928461	-0.18859039	28.55795655028546	-37.433108174404616	3.037613143179599
O	1.97931954	0.5187613	0.09324525	26.995027693540205	20.958456220119455	10.52542241845446
H	1.13868726	-0.29972685	-1.63984068	10.2657692644567	12.032292512187631	12.224712279944498
H	-0.18843194	-1.94349693	-0.29879828	12.829392345184326	33.51954152957126	12.11013492237049
H	0.39405315	-1.1497305	1.2296317	-0.6816031942162167	0.8669094783831708	1.315536044144913
H	-1.65544406	-0.61210051	1.39342756	-15.27884130105011	4.152356983028193	-17.128270838313675
9
Properties=species:S:1:pos:R:3:forces:R:3 energy=-167507.36082776607
C	1.08636469	-0.06905297	-0.44846854	-43.23619029097909	-49.13515769908362	-37.61539747760873
C	0.00173445	-0.91306121	0.31365685	24.23336886543667	15.533982679761344	3.22990649422287
C	-1.36526993	-0.32618456	0.31892656	-21.210005992958383	-1.052896261823267	34.75582057590018
O	-1.73695545	0.70518352	-0.17161378	-0.1150964330908932	25.27848658421048	-26.110424282685795
O	2.00459772	0.53043612	-0.00217023	29.6722343886981	25.60577536145549	25.91661143857818
H	0.98376208	-0.2439464	-1.59382152	-1.3860321678411354	10.274331659091727	20.424731884854687
H	-0.04534417	-1.83268781	-0.26859316	-0.6140337620182658	-15.082185966806142	2.313640183694967
H	0.20594291	-1.13074284	1.39625632	7.151783237201042	0.9291059370732667	-16.84284502473092
H	-2.09153229	-0.81550625	1.03074583	5.503972155552168	-12.35144229387953	-6.072043792225442
9
Properties=species:S:1:pos:R:3:forces:R:3 energy=-167506.79791947297
C	1.08329667	-0.07202538	-0.44589515	-41.33443036599308	-41.33869781791209	-41.33964426434048
C	0.00091604	-0.9250914	0.31198595	32.880304443568235	37.82846750983192	20.474519675103835
C	-1.35559446	-0.32667689	0.3187095	-36.27045775768964	10.873676073817224	25.622483037445736
O	-1.74004131	0.71109864	-0.17337741	9.893290982730688	11.312189893439738	-18.881715119686017
O	2.00535845	0.53326938	-0.00112288	19.386968222689095	16.663940996707275	18.705196638237023
H	0.92808897	-0.22509208	-1.60622342	4.996039730272311	11.499198777806045	27.955333882432075
H	-0.02625828	-1.83461701	-0.23766495	-2.35852389910793	-32.86179121483292	-8.428564617296324
H	0.22430163	-1.10453235	1.40334744	4.208859838382191	-0.7988502304001139	-19.43849105269837
H	-2.10537867	-0.81286918	1.00833053	8.597948805148159	-13.178133988457233	-4.669118179197414
9
Properties=species:S:1:pos:R:3:forces:R:3 energy=-167501.05182291236
C	1.01427702	0.00123592	-0.42773093	-44.64870744414903	-22.6091344268921	34.75331581585299
C	-0.04320961	-0.98019999	0.41717555	24.27363159032386	15.055476298772955	24.28423426656096
C	-1.48182815	-0.41481179	0.24368013	52.42743170166002	-13.981804251396179	17.064929601759285
O	-1.53845494	0.71862821	-0.14224644	-22.605728173633825	40.74486163352924	-17.841875401501134
O	2.01884077	0.56101139	-0.08856833	12.522304690003716	-9.140955788869183	18.290380912878977
H	0.55841457	0.21454415	-1.36075572	-11.774492592460359	4.518466731598405	-43.16729391543215
H	0.04940208	-2.03859177	0.12620909	2.222629423325303	0.24120179295209396	-2.5648038979670216
H	0.23677499	-0.93016346	1.53513269	-9.600677992900986	-1.5911021782171628	-29.955421429382813
H	-2.3852414	-0.94886471	0.58526541	-2.8163912021687256	-13.237009811478028	-0.8634659527689713
9
Properties=species:S:1:pos:R:3:forces:R:3 energy=-167494.9801109098
C	0.9770604	-0.01365341	-0.44914916	63.92138389393546	-3.1792214757068455	106.02001090937038
C	-0.01493229	-1.03320799	0.48102012	44.12774327533002	63.2422800846683	-16.397215845595728
C	-1.40133703	-0.3899651	0.23275061	10.198642007990442	36.11895518929189	-18.025068743033618
O	-1.63824529	0.78630543	-0.14964968	24.908501556870224	-62.85004455706504	25.030658137766235
O	2.02976616	0.54962361	-0.08193353	-56.45666075516796	-33.144961714888716	-7.447791708995617
H	0.6994752	0.11112843	-1.4337853	-29.501755429751853	2.5229285368663255	-63.79072868534093
H	0.1805428	-2.03730618	0.05168542	-16.170472789682723	3.367510272466558	2.764784997007223
H	0.33607962	-1.0509435	1.57946724	-13.337803872134383	6.184085793264709	-32.97136623525521
H	-2.19877899	-1.106462	0.32536312	-27.689577887389206	-12.2615321288972	4.816717174077233
9
Properties=species:S:1:pos:R:3:forces:R:3 energy=-167497.80282251645
C	1.18358494	-0.16042505	-0.47235096	-17.329831875168082	21.492540903308303	-26.962138079027326
C	0.01072637	-0.80077595	0.30038963	30.55028570677244	19.2600992354831	50.04364674985206
C	-1.50119001	-0.38036609	0.19521432	29.926778319936616	-32.181410581457136	-28.862219928395575
O	-1.85839973	0.75411659	-0.02167676	-3.6053928393916617	-2.8337855254543043	6.750330752717606
O	2.11914223	0.48394435	-0.0233451	-13.555679096260159	-19.225401696970707	8.876454358915751
H	1.03416816	-0.18900042	-1.55500684	5.06155824502214	-5.4861438967034	-19.264010626512746
H	0.28764041	-1.84871308	0.55150849	-16.672334746094265	-0.2379129807002602	-15.279122354216794
H	0.3813854	-0.32836058	1.22934088	-17.799788377087893	-0.7043138175516163	17.71038096322385
H	-2.18684083	-1.29913252	0.21170032	3.424404662270765	19.9163283600461	6.986678163443243
9
Properties=species:S:1:pos:R:3:forces:R:3 energy=-167506.8972949628
C	1.1149226	-0.0835141	-0.46249572	-8.575728559695623	34.47958984456574	-3.0473152832800796
C	0.08088255	-0.74149204	0.47306784	-35.50207216930978	14.321405939990997	-20.497440998919092
C	-1.46534226	-0.38610899	0.11898056	20.642584708525785	-19.469757864912324	-18.677342309374346
O	-1.90652306	0.72727812	-0.03403909	4.171216773990349	5.665455419063636	7.519936980650989
O	2.17007524	0.39606191	-0.07346094	-11.575182804810524	-15.91078086520534	-3.052766695479561
H	0.77596952	0.13912324	-1.53909199	5.141400895901015	-14.89079895755188	16.378805524966765
H	0.12246649	-1.81899461	0.33963292	6.093244830129098	-11.719790928678037	5.375175400571828
H	0.2654096	-0.433889	1.50481363	5.1068495108710446	-3.0899370967403263	3.988830871499268
H	-2.13705713	-1.28491613	-0.14274933	14.497686814398653	10.614614509467645	12.01211650936423
9
Properties=species:S:1:pos:R:3:forces:R:3 energy=-167494.57977602468
C	1.20221175	0.29928287	0.29782636	6.844021423549701	-16.427297312899068	12.976751276564034
C	-0.0047767	-0.68987015	0.72266394	28.79810037562042	48.786488677022916	22.472730878717936
C	-1.4211032	-0.2792678	0.34997516	-5.705455306533074	-55.032010608035634	-61.29052548924014
O	-1.7266364	0.4302044	-0.6044463	5.413299995374283	8.79351390259087	33.80919158727741
O	1.92546417	0.23669806	-0.68405742	-25.00666463360862	0.7675166227733775	21.960378664515083
H	1.4328907	1.02921412	1.19482587	-8.959010948150913	-13.159021155520106	-30.335551435827767
H	0.03934179	-1.76138736	0.53103427	8.37484467695966	-6.003797216726967	-20.591452889742502
H	0.15267978	-0.69013772	1.81535167	-10.501184044810845	2.4192509640686364	5.301388321164511
H	-2.11730794	-1.18086671	0.58107295	0.7420484615994517	29.855356126726008	15.697089086571271
9
Properties=species:S:1:pos:R:3:forces:R:3 energy=-167503.12751024088
C	1.11653479	0.33724945	0.36353168	60.486342087948096	-48.54721991644065	-56.46275033764599
C	0.06014583	-0.74628215	0.67338192	29.31461493750387	-1.8417696271459838	-9.417060832198887
C	-1.3102413	-0.20952714	0.32940598	-39.1976137407116	-6.723405635383633	14.797168785774506
O	-1.74881343	0.39221848	-0.63911194	22.68318565161469	-11.420943255004419	10.2564986886191
O	1.8591579	0.20176364	-0.65307811	-47.982354233706694	19.386563820736402	58.0180116974053
H	1.36756079	1.08635137	1.12701471	-8.063846789268549	11.489973043169098	2.5785186681992247
H	0.42394677	-1.6720473	0.12983516	-16.78351571566831	20.6659809903142	0.8664759395315408
H	0.02301646	-1.04838338	1.74569068	3.7075033334847705	10.864213100271025	-7.931998290612425
H	-1.97612053	-0.42284562	1.22766129	-4.164315531196542	6.126607479484036	-12.704864319072348
9
Properties=species:S:1:pos:R:3:forces:R:3 energy=-167503.82021278417
C	1.11945801	0.34033416	0.36269478	51.01998456359642	-57.04069887392712	-56.59333865760031
C	0.06075992	-0.74791958	0.67128974	29.07242543328191	1.6766391009164319	-9.71602754588518
C	-1.30859691	-0.20586643	0.33085538	-38.19861024632863	-9.444125776926379	15.111245077803673
O	-1.74788598	0.39015951	-0.63905284	22.222864953055627	-9.083618033050659	7.3204002353938655
O	1.85529775	0.20007933	-0.65060117	-42.17245853389477	20.900569946368574	52.89692330635257
H	1.35133974	1.07849815	1.1270601	-4.556143894666321	18.051922166991552	7.315742513292585
H	0.4193023	-1.66661599	0.11908165	-16.03322236640479	19.099434404276373	0.679190593569505
H	0.03362428	-1.0499344	1.74218131	2.6779560625592214	9.988964413081794	-7.038267175858186
H	-1.98105651	-0.42032129	1.21925537	-4.032795971198806	5.850912652269489	-9.975868347068511
9
Properties=species:S:1:pos:R:3:forces:R:3 energy=-167506.86107616193
C	1.14957321	0.34363693	0.34387982	-36.027127555996564	-42.36486607428415	40.40657493756825
C	0.07284085	-0.7556517	0.65299912	7.2681242940594775	44.14105922625603	-2.134990142539621
C	-1.30663116	-0.18304113	0.34613181	-20.278492557640117	-20.847135952455154	12.751274392557649
O	-1.73615936	0.37397294	-0.63861538	17.46249816601332	6.729881040210034	-15.550788621400592
O	1.82117661	0.19275598	-0.62443645	34.18246048805808	20.203805039525424	-32.8383203475564
H	1.23201276	1.10633076	1.16185069	6.097122070139549	8.41215393159187	-11.00167198135354
H	0.34000296	-1.58889853	0.02921705	-1.717463738110489	-14.39053387937111	-12.446993957929205
H	0.11555268	-1.03615138	1.70542171	-1.9256295320942125	-1.7619438542281345	6.5537855661889255
H	-2.03511889	-0.38568058	1.14894083	-5.061491634429013	-0.1224194772447502	14.2611301544645
9
Properties=species:S:1:pos:R:3:forces:R:3 energy=-167501.76559775465
C	1.07884575	0.17567702	0.33189142	36.38209522665863	29.567471503194138	-40.23551254129345
C	0.03367054	-0.84472094	0.61165256	-2.850612631796537	2.745899979811073	11.330083399019758
C	-1.27116325	-0.02747322	0.42878876	-12.376630431290428	-5.612997431013069	-61.784693357773754
O	-1.72981209	0.29015062	-0.6810525	17.20252008787149	-14.75564830698226	48.12258647339646
O	1.88361582	0.3351627	-0.61576982	-41.245247591921846	-23.526020231321258	47.39098203396238
H	0.9084281	0.97011952	1.07099466	15.508486684233917	18.483669347925833	7.917495050150414
H	0.18812623	-1.77996058	0.13268977	-9.117258160213638	-19.136063561604818	-33.52361455739299
H	0.08103922	-1.13088789	1.66297618	2.5318639072581917	7.979071007825996	13.036352512467145
H	-1.73010436	0.31541849	1.36541762	-6.035217090799686	4.254617692164158	7.746320987464276
9
Properties=species:S:1:pos:R:3:forces:R:3 energy=-167494.41906412793
C	1.0612812	0.13614871	0.34843815	89.30016413802171	108.52451610122628	-34.45507605336908
C	0.06567144	-0.82422024	0.62709959	-18.820704876573245	-77.49911261846275	-26.53095684328567
C	-1.24376581	-0.00647825	0.39576081	-41.974394193176956	-1.1733872405370767	-15.688658631994608
O	-1.76211821	0.28479785	-0.67129805	21.125625516019664	-10.8303911507735	17.194171224070125
O	1.88454926	0.33443294	-0.61717646	-64.0788293438039	-35.7767394546588	68.42450881946662
H	0.90933655	0.98660733	1.10770534	18.081052521761144	-4.073233747193185	-11.561122899975723
H	0.33184654	-1.74092066	-0.0295226	-30.109478497443593	23.39111609175411	14.777727525643463
H	-0.00811815	-1.12253035	1.68974584	10.281408066029394	2.6212065485350906	-4.410893273568855
H	-1.78608083	0.32464034	1.3439654	16.195156669165737	-5.183974529890173	-7.749699866986248
9
Properties=species:S:1:pos:R:3:forces:R:3 energy=-167495.8088001846
C	1.08375345	0.14121818	0.3504563	59.188786477053675	98.02199597262101	15.674376896039918
C	0.09424517	-0.83399918	0.63319591	-34.12464514361844	-32.86400557011387	-36.67452332162694
C	-1.23032358	0.01661632	0.34723067	-6.7790803267429345	-25.745970477242953	65.00037529890237
O	-1.79297019	0.27430063	-0.65321044	-7.776079307925883	6.277016396040235	-65.97250107807155
O	1.86186047	0.31996193	-0.5934952	-22.59516017823205	-28.867226604421013	12.685278553181242
H	1.01951835	1.0014032	1.09906003	6.83032314243513	-5.598359630831907	-2.345625743360726
H	0.33163612	-1.59410073	-0.16796002	-23.72120155808485	-5.640321681936765	22.757676898517992
H	-0.05302173	-1.09591986	1.70918585	14.21722642140503	-6.445858138592816	-17.593722188331302
H	-1.76972353	0.31366524	1.29019214	14.759830473710224	0.862729734477993	6.468664684749012
9
Properties=species:S:1:pos:R:3:forces:R:3 energy=-167502.10750302597
C	1.32684114	0.07129079	0.43488729	-17.47861235437759	38.29044042467555	-6.741150205106222
C	0.00013767	-0.69362938	0.46735129	14.254725148115948	4.821709629412919	31.94309334323036
C	-1.32437228	0.19079846	0.38345069	-21.1877152118075	-40.956156771474035	-14.837832643718876
O	-1.97416238	0.06687774	-0.64485609	7.917815942930999	15.859235503501822	8.283829539547606
O	1.99348162	0.34684127	-0.5611319	-12.833827680821987	-18.594490115578562	24.81811336377253
H	1.47638614	0.57021202	1.43000101	16.792829841259376	-1.4566576639751345	-2.9390279408373496
H	0.0739111	-1.40863945	-0.34452178	-17.009009295510243	-4.341130049220762	-10.485948976996612
H	0.00683807	-1.24405322	1.46225095	-4.803581952581798	10.992412104097246	-18.92293044908713
H	-1.89643529	0.65839509	1.27495263	34.34737556279267	-4.615363061439075	-11.11814603080435
9
Properties=species:S:1:pos:R:3:forces:R:3 energy=-167495.53836191155
C	1.32701804	0.15089474	0.48967858	50.91414208327122	-28.29706294203198	-65.17965617608644
C	-0.0135454	-0.67313191	0.44856557	41.78775463642701	-31.48175693539416	-0.4976280326581203
C	-1.20539577	0.10397	0.26117346	-127.66814977199694	78.16599718023231	-17.99150729877524
O	-2.16160677	0.07471601	-0.59644299	81.95597768306172	-22.349927561721636	44.71305997096475
O	2.05615636	0.33133702	-0.5354591	-58.92713026475385	-2.5880405181253674	78.74008347441679
H	1.72384656	0.21176972	1.54258883	-0.47560027991897963	17.75938962266663	-11.71691904991371
H	0.06606253	-1.43988646	-0.34153525	3.047043666643139	2.95909302255261	0.04262367435840852
H	0.005841	-1.20311166	1.44965869	-9.801285830087968	11.528342524857276	-16.425792751961357
H	-1.41132949	0.97066593	1.02399855	19.16724807735477	-25.69603439303589	-11.684263810345133
9
Properties=species:S:1:pos:R:3:forces:R:3 energy=-167502.38164755388
C	1.25682914	0.14412783	0.4297152	-31.92675185800135	-19.94677925377929	85.50613515851457
C	0.07594363	-0.66833688	0.21231548	-68.55256761614073	-23.33561356313544	-11.159437559412286
C	-1.19210718	0.28149863	0.06940612	100.8050369654871	37.89098497231035	60.464207963459835
O	-2.22570774	-0.0537438	-0.33870443	-85.40617224092968	-25.642348705316373	-40.57747043517887
O	2.11576896	0.28808922	-0.35816194	63.9701410862643	22.940850650063638	-49.96025561514215
H	1.25898983	0.52622901	1.54217652	8.971730000248545	6.208023116945438	-26.26016713018385
H	0.0639292	-1.39964266	-0.62086391	7.879925702832389	11.97560662360232	-1.378122104705295
H	-0.25433991	-1.28008069	1.0903128	12.194259715441175	10.55441271845251	-0.2945263142104071
H	-1.00124293	1.32656009	0.57242584	-7.93560175520181	-20.645136559143307	-16.340363963141414
9
Properties=species:S:1:pos:R:3:forces:R:3 energy=-167506.19207975923
C	1.27738094	0.13302515	0.48689544	21.831682467956554	-1.744974856960047	-67.92299301596042
C	0.04467301	-0.67940366	0.17907831	-9.362273077020875	36.97890258479193	43.48646233123449
C	-1.15348329	0.27018358	0.07461787	-72.57089989657308	-33.87702605171122	-23.984504065104367
O	-2.29378041	-0.05356089	-0.33443333	56.158157969948036	1.8947826248572497	9.830002208658321
O	2.1604668	0.29406014	-0.37095188	-18.792688376967202	-2.4442652657530366	36.780844888607724
H	1.26841028	0.66242828	1.44549958	5.672003600972122	5.911910448179027	13.809768119717752
H	0.12023963	-1.30222153	-0.68182549	2.16815014704285	-19.61423193817404	-13.928244081918324
H	-0.18061709	-1.15834003	1.15683148	-2.111660277587301	-14.816874819676078	-10.628118164895227
H	-1.10217867	1.27252147	0.45135703	17.007527442228962	27.711777274446156	12.556781779660163
9
Properties=species:S:1:pos:R:3:forces:R:3 energy=-167499.16563697203
C	1.33507372	0.20169214	0.44422739	21.319806292865827	-45.98615460408603	-25.174588504930856
C	0.02626457	-0.66438923	0.19616273	-16.971752616545718	44.72421570032324	-24.014404771986985
C	-1.24790787	0.26602947	0.05339133	-56.07512865230558	19.959883289753883	-11.489812132835949
O	-2.40123652	-0.08411202	-0.2996599	67.24797774707591	-1.755924436657947	21.212783729727725
O	2.32218505	0.26401215	-0.33063226	-65.75208412755079	4.084731458325646	47.32898692279306
H	1.28744768	0.58426186	1.49485941	13.336133134857759	13.982328466864562	-6.812886358092874
H	-0.00384855	-1.03672761	-0.82966815	12.41866287920022	-14.927176810311442	-4.851166990276897
H	-0.22360318	-1.47510602	0.90618959	10.81085456486479	6.493546477146679	0.5625461229319879
H	-1.15840867	1.41621762	0.16629634	13.665530777537413	-26.575449541358577	3.2385419826706623
9
Properties=species:S:1:pos:R:3:forces:R:3 energy=-167496.88049722268
C	1.32426602	0.19980667	0.43790144	19.789398383996208	-63.848464366944576	-62.37667024484637
C	0.05454976	-0.65271115	0.17216495	-32.12061655764913	63.943684572753995	10.974509085947249
C	-1.26543631	0.28816633	0.04395223	-35.446042304737695	-53.71385120662101	-7.8143192089545135
O	-2.39698928	-0.09393808	-0.28607962	43.07361437896755	-8.718431744993213	11.089879855877257
O	2.31911067	0.25138077	-0.31370414	-48.1648738072072	8.4860095679638	30.958013206310383
H	1.29991616	0.53342939	1.43492193	10.251943982540814	32.9963338323958	44.23339599772013
H	-0.02363769	-0.99633035	-0.81751935	13.920645768894879	-31.953292888157918	-35.47761395058345
H	-0.18503746	-1.39997652	0.94557249	7.441542773729701	0.5763801574805851	-2.9848215257214954
H	-1.20766391	1.32752418	0.16424849	21.254387381464912	52.2316320761225	11.397626784250768
9
Properties=species:S:1:pos:R:3:forces:R:3 energy=-167504.34585999287
C	1.31747728	0.18129655	0.41641275	4.784885996094483	-22.934970208007908	21.03498263560152
C	0.07767515	-0.62297965	0.14618094	-50.13897539646271	31.893548233749478	-36.0282250248575
C	-1.29488135	0.3019742	0.03133279	28.541471636638136	-24.036437873919965	9.580999485154207
O	-2.3830951	-0.10675664	-0.26836724	-7.958715778573795	-21.0349386169475	-4.678847848909229
O	2.30559022	0.23880391	-0.28814813	-4.198766711493322	7.5907999468033625	-7.732025685166907
H	1.34722856	0.57158451	1.4778453	-1.2994670593519277	7.627904160354419	-7.397261989459026
H	0.00043252	-1.04500778	-0.89712749	15.17655422294088	-7.734264207957932	23.20893913726837
H	-0.11652194	-1.31187516	0.98096855	1.1925815181864337	-5.345489899965428	-5.757610682042977
H	-1.19729362	1.35480517	0.19478521	13.900431572021922	33.973848465891656	7.769049972411426
9
Properties=species:S:1:pos:R:3:forces:R:3 energy=-167502.99591680558
C	1.25606518	0.26982163	0.21058719	5.726262795499213	55.35052097581262	45.179393928727464
C	0.03558897	-0.44417415	-0.23951814	-27.802210339209743	-1.8110685616894628	40.667171033967456
C	-1.32127158	0.32245216	0.03854308	15.083690716488503	32.82218190231173	-34.51991840368354
O	-2.4010931	-0.21801068	-0.03296828	4.866636770598534	-2.4308726653357744	8.999164533480943
O	2.44500658	0.06728736	0.01855349	-26.451745820359317	-6.3944158129922055	-5.553306011707211
H	0.90971822	1.21358822	0.90963402	19.40219395610857	-30.58913518982569	-22.79285275137075
H	0.13324159	-0.72707462	-1.2566014	-4.859568447436974	-10.668920363067476	-32.62646974641314
H	-0.12465051	-1.36814152	0.35987747	10.592068583512846	0.7036660804033956	-6.151523477885745
H	-1.26401904	1.51010428	0.10134118	3.442671784798486	-36.981956365617094	6.79834089488448
9
Properties=species:S:1:pos:R:3:forces:R:3 energy=-167501.0814918149
C	1.24031595	0.39945785	0.21302288	9.047267249680635	-79.41202133321391	-51.59530974021187
C	-0.03415572	-0.43616248	-0.29040009	58.698257793152045	13.538450039976398	-38.330272695610525
C	-1.25575853	0.31579079	-0.03584341	-35.84372459085967	-78.80969633967244	16.301184197884936
O	-2.34618807	-0.23733614	0.03172637	-6.497641018153613	13.262885940176696	-5.922800580363797
O	2.38886137	-0.00430261	0.0744026	-20.46304496934852	13.014431726032187	6.818204376053809
H	0.99265538	1.29876569	0.69844391	-6.992533904161351	45.35007077708876	25.08377323327279
H	-0.03554386	-0.66352115	-1.43063585	11.467053539524791	11.579563891367181	31.739732634375383
H	0.07061916	-1.428643	0.14641317	-10.574538655790043	-6.53070800764351	7.4482979587444
H	-1.11566096	1.30416189	0.25028049	1.1589045559558215	68.00702330588847	8.457190615854937
9
Properties=species:S:1:pos:R:3:forces:R:3 energy=-167502.4600333665
C	1.2841206	0.45387841	0.09424809	15.282699027388633	-19.997935455950106	35.534707141792275
C	0.00079291	-0.36617952	-0.38648883	23.03947014506111	37.22391118078712	-34.37036654065193
C	-1.28068909	0.31048081	-0.08436225	-85.14145224186325	-25.499653577905033	32.14828926896637
O	-2.38205416	-0.295884	0.14604089	76.31604223188421	39.60372162690319	-17.156132234772976
O	2.38044363	-0.09357761	0.21495663	-31.819586507872696	17.923952359379268	-10.583638119616388
H	1.17003681	1.55585527	0.50562485	-5.521582867852107	-31.248986775559782	-22.88186067616052
H	0.0783223	-0.09913896	-1.52204807	-0.611310570672801	-20.396552793448166	26.58649188877418
H	-0.00673312	-1.4669946	-0.19355922	6.883997865693499	17.416304749872175	-5.073741322275698
H	-1.2679789	1.44835901	-0.03265031	1.5717229182334158	-15.02476131407894	-4.203749406055316
9
Properties=species:S:1:pos:R:3:forces:R:3 energy=-167505.3112264067
C	1.28897872	0.40343749	-0.23940281	-30.48686177653779	-48.57590797766693	51.09414600172221
C	0.02598123	0.06132656	-1.02533238	9.515866467843336	29.14467439386403	-1.7921511837601618
C	-1.27734446	0.27094922	-0.27717438	40.609185886874215	-45.995982599615985	33.79807153370896
O	-1.61505757	-0.39926667	0.6793211	-3.0155748720287865	-0.439052144870831	-1.9682530295104275
O	1.58248754	-0.28327027	0.75077826	8.449641289531284	32.92077912792649	-34.84941355618
H	1.78375183	1.29912036	-0.59453959	21.133005285819383	15.424214760637648	0.4590697550898009
H	0.04331792	0.70973949	-1.91338267	-4.787689937196269	-11.24594421221577	-7.843921486619955
H	0.09256345	-0.99075655	-1.18612793	1.232209115053493	-24.31216019579823	-15.67877254364178
H	-1.85244558	1.04999027	-0.63293306	-42.649781459358856	53.0793788477397	-23.218775490808643
9
Properties=species:S:1:pos:R:3:forces:R:3 energy=-167501.843797565
C	1.23364268	0.365401	-0.197536	10.669183544066389	31.85917350269324	-18.75551495777542
C	0.01366736	0.10156535	-1.08452948	22.421309037914	-43.592493614044045	-2.699013846126689
C	-1.27743996	0.2145901	-0.32091978	-38.01577413880591	56.095526681790695	25.395636221092115
O	-1.53184534	-0.37108087	0.72580792	6.304756858428333	1.3089533827537732	-30.463033858118322
O	1.54144248	-0.27623549	0.7570261	10.332406968221612	-17.839237738252717	28.10345330429929
H	1.88788467	1.26853383	-0.54406394	-16.005801424565828	-18.444722617532495	5.621189934175666
H	0.226788	0.78491796	-1.92020901	-23.017770139086863	-8.794322820813656	-8.560675620674036
H	0.09781054	-1.03611534	-1.32244609	0.2029149619643822	39.496406066853595	-3.377144496945881
H	-2.00737047	1.13702523	-0.64955762	27.108774331863685	-40.089282843448245	4.735103320073274
9
Properties=species:S:1:pos:R:3:forces:R:3 energy=-167500.60360447713
C	1.19081825	0.39743573	-0.15368517	20.24561583029515	19.087570979149834	28.665277801264846
C	0.07151953	0.03060025	-1.13942236	-9.642741753647257	21.42242585263122	23.218365945577983
C	-1.32479757	0.21361579	-0.31131185	-23.534152663798906	21.381189547856774	-14.871721993956003
O	-1.58885772	-0.32612032	0.73887328	9.192119326243757	1.3003171458126033	-15.9010505856848
O	1.64785515	-0.30388745	0.74009225	-12.761680690186624	-3.584743518061025	-21.003805072353984
H	1.60448271	1.47732293	-0.16918947	-14.739171218308819	-17.53064256754712	-12.293911597520921
H	0.06859058	0.82677907	-1.90937578	-1.2550235746972882	-13.05804373956329	-2.8258717819039987
H	0.29317755	-0.98820385	-1.52726292	-14.162061685508538	8.826965765794657	4.149930515668251
H	-2.16004121	1.03922569	-0.75195349	46.65709642960845	-37.845039466073686	10.862786768908812
9
Properties=species:S:1:pos:R:3:forces:R:3 energy=-167498.71411882353
C	1.1369312	0.41089011	-0.10247002	65.9267855543411	21.266125506284208	43.031439846983396
C	0.03850492	0.06314363	-1.00612152	-12.060108764610634	-61.54147701305247	-41.38232893461317
C	-1.28463045	0.21984403	-0.37672192	-94.52914600089179	9.988059527955878	55.13278971968896
O	-1.63504104	-0.31620383	0.701094	22.966661430294863	26.98763733431512	-55.98326126449299
O	1.75367936	-0.32389535	0.67566206	-26.93591315453958	4.918386853182985	-24.98673590135634
H	1.49956002	1.49577412	-0.09704504	-15.091309598444518	-10.88034854132366	-8.082318036781109
H	0.01366879	0.62883431	-1.98769756	10.23577101173785	-15.666436086436674	19.562506178936832
H	0.03406792	-1.1347539	-1.12295185	8.219351982287147	53.11236469098058	-6.276132369000203
H	-2.13089602	0.90312443	-0.94695526	41.267907539825714	-28.184312271905757	18.98404076063443
9
Properties=species:S:1:pos:R:3:forces:R:3 energy=-167496.41841261034
C	1.19909207	0.48928306	0.00852091	-33.688356217547735	21.9194439117905	-54.389223589271374
C	0.0599114	-0.01210743	-0.94733681	-39.39007882558176	-34.67893392038018	-4.67205502700872
C	-1.37269352	0.17906312	-0.39485284	1.7715989191002934	73.79999071955534	4.695021668343795
O	-1.70063456	-0.27568314	0.66440177	-18.049655720042054	-21.687981711370245	16.533223909975504
O	1.82726285	-0.34430139	0.57697073	29.88831689450895	-10.903886575301215	33.00588305599942
H	1.41587659	1.64006643	-0.01568237	-5.968407325779793	-30.01043182567006	7.112200827567993