9
Properties=species:S:1:pos:R:3:forces:R:3 energy=-167512.48926829154
C	1.07827934	0.14955788	-0.42012544	-5.344650052465366	-17.391832749671643	-10.811221783326499
C	0.00395967	-0.81961818	0.1493278	7.550265002357409	14.590737577350414	7.262991960869707
C	-1.25059711	-0.04574	0.53046243	0.7583292613085946	7.901206003728055	-15.90078841971399
O	-2.00895691	0.39079617	-0.33577663	9.92514394389969	-7.699917850953869	25.136676825787216
O	2.14990887	0.2765933	0.10856353	19.46974459180171	6.152995158573392	15.741072474126065
H	0.92834643	0.6312154	-1.41734231	-15.340387215608157	-0.00329329005008102	3.880034924630383
H	-0.29892981	-1.45413724	-0.6690866	-0.9751907617234604	-12.863159652032897	-12.506764902617237
H	0.49106001	-1.39582342	0.96723872	-9.032111719901907	7.6643084071898695	-6.2297551476080235
H	-1.35326791	0.15532452	1.63161765	-7.011143049668523	1.648956395866741	-6.572245932147623
9
Properties=species:S:1:pos:R:3:forces:R:3 energy=-167506.7438780939
C	0.98827311	0.15142273	-0.38220732	7.449453130081112	-11.526985251889206	-44.054969798441824
C	0.06698421	-0.90305411	0.13807692	-14.659848822765198	24.68539239145924	44.536337279935594
C	-1.18220659	-0.05394994	0.44603191	2.179799500121064	5.349259167329525	32.68004903030265
O	-1.97938673	0.44805549	-0.30948589	-5.312287661370051	-8.871645812652924	-28.179692890411708
O	2.08070174	0.27858737	0.11159904	16.03623263003413	20.172822458459162	1.9496465565560674
H	0.62013806	0.68441138	-1.33259525	9.494893656162313	-0.9467383490976478	19.450139154406767
H	-0.05726875	-1.73697197	-0.51748386	-7.218103292865764	-12.559648702879453	-20.826955746390468
H	0.57742987	-1.20687145	1.08298718	-14.62216177552127	-4.734722818306964	-8.815428337836565
H	-1.23734991	0.32529894	1.50232527	6.65202263612371	-11.567733082421636	3.260874751879494
9
Properties=species:S:1:pos:R:3:forces:R:3 energy=-167495.80453928545
C	0.92714452	0.07620735	-0.41093804	81.27408921713294	42.50764877777315	41.22360765134656
C	0.00403265	-1.01011309	0.19012242	-2.7984515745500307	-27.32356892332796	-53.98390426964726
C	-1.11273847	-0.04872668	0.44916829	-18.42200376366481	-6.971436858688562	40.91051247630108
O	-1.86913469	0.47828141	-0.32964361	-5.344852577076442	-0.7146026933732877	-19.104229211864677
O	2.02708616	0.39535988	0.09860064	-28.248131180746842	-35.2254941790844	-7.546950653783801
H	0.65301881	0.94532443	-1.0529635	-30.948139587523304	-27.69839995121659	-17.69481724618265
H	-0.2601796	-1.81075354	-0.62977657	7.064617488205017	33.60536948191824	27.88872899830513
H	0.38450662	-1.53870474	1.10649833	0.3104422182938155	18.110476844962783	-17.482879634336765
H	-1.12264601	0.24639714	1.52258007	-2.887570240070323	3.710007501036322	5.789931889862528
9
Properties=species:S:1:pos:R:3:forces:R:3 energy=-167506.11841268642
C	0.95740749	0.09040637	-0.38106862	-9.515179782165708	-34.036789574402896	-16.26323042771651
C	-0.03661572	-1.02471479	0.14565425	-1.5690555351116522	8.735078801491811	-0.2874492671131079
C	-1.1445658	-0.05760536	0.54567776	-8.384176812223698	3.4893555482718135	-29.71222666517768
O	-1.80042302	0.4746513	-0.35904055	4.166817774807319	-9.169425875586402	24.99219059144785
O	2.01850106	0.43002141	0.09410536	-16.74070070536771	-0.7123349420966713	-4.980097642661784
H	0.42712693	0.40463336	-1.31872064	19.556263920046003	22.060876483060994	-0.6644245074448248
H	-0.44661854	-1.63960692	-0.72979737	19.200376920598792	15.658130474267244	23.618241770224703
H	0.44222258	-1.5855885	0.95730196	-5.949344297203416	-3.7835179497759097	0.29139327292721884
H	-1.21943158	0.28084962	1.59948292	-0.7650014833799487	-2.2413729652299965	3.0056028755140085
9
Properties=species:S:1:pos:R:3:forces:R:3 energy=-167497.01811287852
C	0.93646155	0.03532385	-0.42971702	88.85670827447841	21.663027049654488	23.350024533711203
C	-0.04412149	-0.96200948	0.12955095	11.86434299025602	-16.91455307375799	47.87007767644947
C	-1.1997254	-0.0542899	0.60340933	31.92909909464182	-17.698337389805634	-46.883526403204556
O	-1.74872719	0.45752662	-0.35847498	-35.82137969965266	20.579247074688652	27.131535530829467
O	2.01958765	0.45044173	0.10916198	-88.30760040762505	-28.520679155379415	-46.30271531331847
H	0.55861486	0.24828956	-1.49600623	19.816898741053116	16.343584529708913	20.86057153077463
H	-0.26375516	-1.47375514	-0.80224945	-20.183405525773395	-14.725795370217465	1.9390850249126987
H	0.32310375	-1.66529951	0.93262233	1.8559572774964352	16.610676184490803	-15.405757232809181
H	-1.25617931	0.16839884	1.7095758	-10.010620744874693	2.662830150617717	-12.559295347345191
9
Properties=species:S:1:pos:R:3:forces:R:3 energy=-167504.0846013395
C	1.04807027	-0.03955236	-0.53231188	15.956573277832645	22.65000124975449	16.838804443892585
C	-0.02293971	-0.92725841	0.16961652	4.902017422522695	-24.586776396338422	-29.475705142450675
C	-1.18534246	-0.10680023	0.57013058	-37.089657589027674	37.803722575196765	-25.64063666429865
O	-1.78559667	0.51838565	-0.31585238	8.457137699989621	-6.6208476896177295	18.380715564554002
O	1.96072978	0.47540658	0.14076118	-38.43197579204449	-26.351681745915666	-37.61252482322526
H	0.8726502	0.17516681	-1.6512649	8.630224906640896	-3.195512503976961	24.707122018237516
H	-0.63576994	-1.59359142	-0.55153783	36.024565821568885	8.074321233575642	14.14343798895257
H	0.51707475	-1.49951806	0.93142128	-8.228950954305791	-1.6985543261364109	5.783334079365208
H	-1.62638714	-0.0628853	1.57883096	9.780065206823336	-6.0746723965416	12.875452534972727
9
Properties=species:S:1:pos:R:3:forces:R:3 energy=-167492.04263773264
C	1.11954028	-0.17137461	-0.51322831	32.11957863001994	67.06354990659453	10.296156716961866
C	0.09144036	-0.94131375	0.17907095	-14.59728649930402	9.628322848456508	-12.668011774938925
C	-1.2859426	-0.194689	0.36453569	25.53270915902703	25.952889647335276	48.167068801158266
O	-1.90870111	0.67387336	-0.19042683	-0.16636943993339495	-3.0521483159242195	-59.05843970547522
O	1.96289712	0.51133005	0.13172951	-35.371699907327304	-39.07255788066735	-46.37019436896354
H	0.94473407	-0.15406073	-1.62905108	19.122289312303323	7.744787205046836	6.0085537915238705
H	0.059421	-1.86106976	-0.36225485	-14.908762008928374	-27.505403348824476	-8.644077424475627
H	0.53526486	-1.08463025	1.13792929	-6.418109043901567	-10.437358638854416	31.113555441514926
H	-1.50801873	-0.13382658	1.42308876	-5.312350201955739	-30.322081423162807	31.155388522694672
9
Properties=species:S:1:pos:R:3:forces:R:3 energy=-167495.34087067842
C	1.20422655	-0.14912716	-0.50172389	-71.16994458029343	-10.282460141797058	-35.028026832465116
C	-0.01307476	-0.83302939	0.2139063	58.42992503241128	34.987826306711945	51.53416273059215
C	-1.39874639	-0.24875564	0.46266396	17.582272610898084	-43.026131913905914	-18.62404372558129
O	-1.80639808	0.65011438	-0.19202252	-21.44960633756325	68.01481409786058	-24.331327851074366
O	2.00585551	0.53370487	0.05997205	23.95077899979883	11.035793532097873	5.260737583550009
H	1.14045842	-0.40476931	-1.63273439	19.243897206144812	11.013467985921741	19.017587366255093
H	-0.23341019	-1.6677748	-0.35527831	-11.667638392723585	-54.4799887055318	-28.73929104708774
H	0.57540732	-1.13929566	1.10769872	-23.033040677594574	-8.191476482461594	6.369748702816556
H	-2.17637997	-0.910942	0.89289389	8.113356138921965	-9.071844678895557	24.540453072994868
9
Properties=species:S:1:pos:R:3:forces:R:3 energy=-167507.4287712409
C	1.07435047	-0.0806719	-0.44539334	-26.697254037185683	-19.536190281557733	-31.128254184517523
C	0.0028563	-0.94152045	0.31125391	40.61647483208443	44.908406988177546	19.984378756749706
C	-1.34303918	-0.32617769	0.32050533	-52.9265824062466	25.467709880433762	8.371820207211803
O	-1.74435302	0.72163493	-0.17755976	24.009878458797196	-10.133137405401904	-6.372983453228324
O	2.00772697	0.53901071	0.00180879	-5.464252671983393	-3.46606595222492	3.998084067937621
H	0.84144007	-0.18005708	-1.5948581	13.053742618718603	10.716124687896011	26.21722070621065
H	0.00292024	-1.87713531	-0.19593871	-4.4934505233643085	-30.171047259647903	-7.852675912620475
H	0.25954075	-1.06185542	1.39404444	1.6705906935960209	-4.5491051938729745	-12.189003028657709
H	-2.11842913	-0.8235893	0.96573855	10.23085303558388	-13.236695463802088	-1.0285871590856723
9
Properties=species:S:1:pos:R:3:forces:R:3 energy=-167496.53784839457
C	0.9490911	-0.03272782	-0.51436322	-15.459613769156466	-2.5449206215516718	14.052448501561846
C	0.1776399	-0.96272464	0.39382119	-60.405086616789994	58.21521122753392	6.550961835278264
C	-1.36697105	-0.34139943	0.29335034	-12.144761012209115	19.125446980853834	0.411706378910806
O	-1.65301492	0.75691017	-0.19689589	21.01169607763504	-35.947281541545394	15.8539913473906
O	1.91137475	0.46427916	0.02740615	23.633252043448966	21.46284039740173	-24.20067997160513
H	0.45287868	0.31238435	-1.51124506	22.08727400010731	-12.436784603624137	20.932483251227552
H	-0.03697452	-1.94567666	0.0817756	6.798498638754112	-40.43491677471605	-10.57330598901118
H	0.62593642	-0.85291545	1.4280242	-15.258492206353056	-9.445246793209948	-21.521821712235113
H	-2.28173817	-0.96737612	0.63259811	29.737232844563106	2.005651728857819	-1.505783641517542
9
Properties=species:S:1:pos:R:3:forces:R:3 energy=-167504.63010932467
C	0.89011511	0.02307041	-0.43539398	-15.09232090303684	-20.29078088712366	-58.231449075517006
C	0.00497104	-0.87045708	0.37402086	53.4703731629415	-18.46726233150647	-1.36018183634729
C	-1.33240972	-0.3960941	0.2832546	-45.20081478945536	-10.042101636570212	3.0013170822278306
O	-1.53325193	0.71523061	-0.17370742	-19.816815790641932	4.333107644383132	1.528969946878961
O	1.91307169	0.45829905	-0.026248	51.241410980323636	30.44663362012852	23.71413598812638
H	0.67154777	0.10351936	-1.58611716	-6.297263841671701	-1.112850967258954	29.997213350225245
H	0.2612352	-1.88819708	0.04439213	-14.787371363687136	-8.077100332830183	-5.751646236818253
H	0.3668094	-0.90411792	1.40196121	-0.006839712821336392	6.735332717244975	12.896189735792408
H	-2.11900371	-1.12088728	0.66974942	-3.510357741950778	16.475022173532885	-5.794548954568257
9
Properties=species:S:1:pos:R:3:forces:R:3 energy=-167493.45778293812
C	0.93719585	-0.00572382	-0.39954199	24.63435109368592	24.931111371432294	-55.151717577093464
C	-0.00236389	-0.90263743	0.35368617	-37.42377213017841	-18.456034074848734	40.37921259712464
C	-1.44888839	-0.4324501	0.27865788	18.12156257865092	15.362220802009892	-12.505171459591036
O	-1.50036515	0.69622198	-0.15115176	-47.02574638308895	31.350333581282445	-6.544867867260759
O	2.01002805	0.53937291	-0.06493594	-63.797402330605784	-35.89641375983937	-6.9273299294526565
H	0.47682368	0.11143425	-1.51521329	27.11078706519378	1.8070116182465095	38.90800656293577
H	-0.11320741	-1.94916178	0.06970172	26.864808879631248	-13.676791327504164	-0.4091548417886734
H	0.05213987	-0.77271062	1.43796214	22.667973446024877	-14.399817342403258	12.441775085435491
H	-2.38185974	-1.02462943	0.66347801	28.847437780686583	8.978379131624617	-10.190752570309133
9
Properties=species:S:1:pos:R:3:forces:R:3 energy=-167495.92399726875
C	1.10089105	-0.10080252	-0.41032094	-10.417786690745274	4.117878885149908	-75.13831232001381
C	0.0591798	-0.69904003	0.41040787	20.437155081048775	6.840872939172279	79.69792461435517
C	-1.39188412	-0.35665684	0.16557164	-9.160333369537716	16.1378550584692	-42.34426032280772
O	-1.93756695	0.71888135	-0.04263978	20.20081601136821	0.47001122688592134	21.83906578177113
O	2.13569664	0.39090743	-0.0696812	24.137569976188928	14.592338068757142	14.490076853014553
H	0.87819374	-0.32322069	-1.54544007	8.5938480294588	12.573470794901171	21.944927648803404
H	0.19269131	-1.7090539	0.00793322	-6.628978619413102	-17.552302146078066	17.079859772179546
H	0.47791501	-0.57353565	1.53267757	-29.857140104411926	-12.997536053865764	-46.46402281429912
H	-1.933057	-1.22856821	-0.18628152	-17.30515031395665	-24.182588773391828	8.894740786996918
9
Properties=species:S:1:pos:R:3:forces:R:3 energy=-167501.084218274
C	1.10066472	-0.01430537	-0.48088512	2.9775338834033023	-18.605261596991678	57.83582595869562
C	0.02667749	-0.7600435	0.48022925	-2.185316795243525	-13.353419995637353	-51.00797756637566
C	-1.45233223	-0.42113699	0.05633117	8.094546205129657	11.56498979583348	46.178502932551936
O	-1.87718327	0.73804573	-0.01613251	15.363223647309294	-40.63722575529666	-11.933370166364893
O	2.18287178	0.38023774	-0.07692011	-18.858561018369706	-8.10390165723834	-9.803578747361037
H	0.7566108	0.14184709	-1.49324133	-5.870253537957948	3.6619153455942706	-22.708892384944743
H	0.19330457	-1.86874993	0.71155473	-2.5388199954656523	19.155433030964016	-30.292432859329164
H	0.19341465	-0.44331667	1.46960745	2.748718294895341	32.649199547812586	35.88728790454538
H	-2.12460525	-1.33443199	0.12568479	0.2689293162992338	13.668271284959731	-14.155365071417378
9
Properties=species:S:1:pos:R:3:forces:R:3 energy=-167498.386954348
C	1.04356044	0.07261966	-0.43010549	1.1750086897400884	-38.77168529078851	8.462524857686532
C	-0.05708511	-0.74130041	0.45001191	79.85262825522075	30.892347832178675	17.631282863411347
C	-1.40825757	-0.45802326	0.05845347	-26.611194953428946	6.8747538588528645	21.63617915460558
O	-1.79164012	0.69244543	-0.00811398	-7.471491510348475	26.968502430585247	-22.35781233662485
O	2.17836147	0.3335675	-0.09599097	-13.24651742589789	0.4822349384593751	10.197160723586137
H	0.73774625	0.1827871	-1.46469436	-10.398453450362249	13.137355074016327	-19.3419872910627
H	0.32649091	-1.77302501	0.68093563	-12.10936471061371	17.178332343226508	-4.684671839085904
H	-0.02129441	-0.0495662	1.34173536	7.559071012669147	-24.82237571212823	0.2779390965729107
H	-2.15709741	-1.21981384	0.16075504	-18.749685906978602	-31.939465474402287	-11.820615229089054
9
Properties=species:S:1:pos:R:3:forces:R:3 energy=-167502.30275027352
C	0.99571741	0.0645849	-0.41064735	31.59844462737411	28.17474299448539	-43.55935540667611
C	0.00168975	-0.66845799	0.43720346	-15.362755217865764	16.670559933570598	51.832495717633336
C	-1.44123018	-0.48832563	0.10511737	-4.182549608238423	8.442681377243462	-28.68600268601478
O	-1.746124	0.68272587	-0.03095686	-30.852440823400208	6.759905479139928	-5.8125355871042945
O	2.16157044	0.30576387	-0.09562689	-33.13753405650497	-12.677495102590726	1.0586028357753665
H	0.64577328	0.41621535	-1.46807778	1.6741350924560454	-9.769488871256357	27.92738337624584
H	0.29029664	-1.69183108	0.56453975	12.36042106264413	-20.302037740936512	11.26580593279469
H	-0.04190402	-0.05951324	1.43319945	17.43104275002364	-31.540327241802622	-23.622257257857882
H	-2.20164468	-1.34003758	-0.08940479	20.4712361735115	14.241459172146788	9.59586307520396
9
Properties=species:S:1:pos:R:3:forces:R:3 energy=-167495.1752247569
C	1.08019062	0.44988664	-0.16551521	16.623985969346847	-68.75920443084088	9.247621157674486
C	0.00522868	-0.7069557	0.49519122	-31.035083376037104	79.31745180859282	38.531061305229365
C	-1.52944363	-0.50145637	0.18683507	47.43340869721007	3.1518088541410485	-29.156096980418074
O	-1.84301948	0.60828573	-0.21260539	-24.04105028038246	-8.515618712932358	8.185598137791066
O	2.25514657	0.09105081	-0.29742365	-48.40887972618504	26.933968677009755	2.6332647201377366
H	0.6841232	1.48105146	-0.42517474	1.6673070340794995	-18.596537790381927	6.021188940385115
H	0.25876547	-1.7295901	0.5917091	23.51372810899147	-30.335179348814762	-14.775281491367044
H	0.03024934	-0.38529151	1.61316798	1.8389095824921349	-4.347308191477721	-28.170789127700907
H	-2.22552875	-1.42758178	0.16136326	12.407673990484717	21.150619134704165	7.483433338268393
9
Properties=species:S:1:pos:R:3:forces:R:3 energy=-167507.5961752542
C	1.09380697	0.41000519	-0.06616039	-54.120684273366265	-1.5132162130096096	3.6255834492173746
C	-0.00650028	-0.59755105	0.45520311	58.49608849698326	35.699933544134765	41.63655045717257
C	-1.41038931	-0.46841116	0.17812303	-42.716841563511394	-0.4130225535441666	-26.249413582493546
O	-1.90462689	0.56449201	-0.2324196	-9.737764047270616	11.127268422871225	-1.6469468091980595
O	2.20289786	0.04228244	-0.32596708	23.030500084269892	-6.305577930932239	-3.612316184727822
H	0.7404903	1.460587	-0.15382692	4.051846252961116	3.677896166507332	-1.1517270733295744
H	0.45545702	-1.54127433	0.34082887	4.071802951158532	-37.880966705345976	-1.1028596256689336
H	0.00583627	-0.36732466	1.57197963	5.07310696974063	-8.752310390545814	-13.541706798744809
H	-2.08804633	-1.36634228	0.34607718	11.851945129034839	4.359995659864507	2.042836167772705
9
Properties=species:S:1:pos:R:3:forces:R:3 energy=-167500.45618060368
C	1.11430408	0.44494247	0.03462104	3.1344134480998815	-67.44110458759097	14.313185457026618
C	0.16983946	-0.6072536	0.58793509	-50.808806187182654	38.75968089947839	-47.887048496173605
C	-1.3590417	-0.3619171	0.13616901	-13.980660118626178	0.16462589983742318	3.5910164091263823
O	-2.07029052	0.54881557	-0.30730506	51.64742280453247	-8.961142902799807	17.21409874031777
O	2.15279334	-0.01793277	-0.39557315	19.573567152254434	27.97349069430628	-13.734302326637719
H	0.79087526	1.4764088	0.06606582	0.9718480334562812	24.598251931934588	-3.6805943059443633
H	0.39637887	-1.60452395	0.18485991	5.006710021982196	2.631272393873318	-5.05439566630465
H	0.25307581	-0.72919971	1.64243089	-5.434504026767615	5.966503267349593	31.827828171738556
H	-1.85901328	-1.322075	0.22263064	-10.109991127748884	-23.691577596388765	3.410212016850809
9
Properties=species:S:1:pos:R:3:forces:R:3 energy=-167508.64380811833
C	1.13077329	0.37634003	0.20987493	-11.34835981415993	1.1599352823204934	-33.88205889944119
C	0.06218307	-0.54781997	0.65842822	-14.594297552003383	-46.03805685581786	46.26186092724092
C	-1.34800837	-0.45031977	0.10566729	16.278373566688053	-0.9862400341458412	-6.550244051203547
O	-1.83834582	0.54867811	-0.34159403	-15.029248033946795	22.67682902803965	-10.17887142889449
O	2.0102619	0.04786344	-0.57903885	-4.071982480324601	6.991882272926096	19.860763832531326
H	0.88075918	1.42158819	0.47496881	14.515464846898205	10.27347079938906	2.5956973647601758
H	0.3276219	-1.62248699	0.63278976	7.963694920391255	4.9655031751836605	-10.177461855038576
H	-0.18250704	-0.45383434	1.7621539	9.70257459078798	8.727270768293454	-11.781257419622484
H	-1.9087267	-1.40421178	0.13769285	-3.416220044330763	-7.770594436188773	3.8515715296679383
9
Properties=species:S:1:pos:R:3:forces:R:3 energy=-167496.3831920208
C	0.93121248	0.41460899	0.14525371	83.78821826691873	-37.1975843291698	-4.87502845808895
C	0.03693405	-0.67547604	0.81484644	-30.017607618965993	20.477750221147218	-23.370615348602307
C	-1.32498451	-0.51632163	0.10420215	-4.371766175075738	-14.578377890630918	-21.178848807209445
O	-1.54111185	0.59128562	-0.36414776	-11.82180584395348	-5.4257766066943	-2.124137599852423
O	1.88128715	0.11317453	-0.65275175	-79.65204993982698	25.281980182828168	52.42015566934507
H	0.87646756	1.40239327	0.6783256	-1.7215963265058414	-1.0247593456969422	-20.05681071146466
H	0.50984667	-1.62625256	1.01094837	2.404427428592121	-14.959302932131376	-11.856153093562584
H	-0.39089229	-0.35122578	1.7643248	14.659285560179148	11.300282142705816	20.800267817924745
H	-2.14461551	-1.34526291	0.0056797	26.732894648638073	16.125788557642192	10.241170531510548
9
Properties=species:S:1:pos:R:3:forces:R:3 energy=-167505.1902161971
C	1.03611067	0.36278183	0.23040664	-9.61358917107571	-3.694642583074518	61.58437030198176
C	0.06933823	-0.64646355	0.84678469	2.639652539740008	-7.894085488332034	-32.31488661474678
C	-1.22890623	-0.40996177	0.13571435	-45.92041421479651	-21.36473328381506	2.9447846392066044
O	-1.66011844	0.55074933	-0.46849769	15.116920448031632	6.1938992068420475	1.158828982746482
O	1.80154495	0.12018427	-0.6545911	14.594390621997917	-6.557111802872051	-26.037748610405576
H	0.96205479	1.3147929	0.76254904	4.641807181723101	24.730155497765168	-4.22009663734976
H	0.35652812	-1.6311513	0.44334485	2.7760143964852406	-5.394769841014654	8.797474289746898
H	-0.2045437	-0.74610656	1.92840642	16.338463897867612	11.049518020741306	-10.332411373029059
H	-1.88940478	-1.32123567	0.23978884	-0.5732456999733281	2.9317702737596587	-1.5803149781503907
9
Properties=species:S:1:pos:R:3:forces:R:3 energy=-167499.35757328302
C	1.11240794	0.4076367	0.36785446	17.489218072462794	-50.09463731038813	-80.4733202982412
C	0.15887289	-0.67102087	0.68681446	-42.28558148407634	18.662179074542134	69.54631194432925
C	-1.31606064	-0.39089461	0.17283705	23.986282131840305	6.134589375932689	-10.655133310118643
O	-1.71382369	0.52985381	-0.52049135	14.811223503805145	-10.618731200037558	12.436878983837445
O	1.76322349	0.08730986	-0.63454087	22.817538137902563	32.217290096928316	6.758163597175061
H	1.19742195	1.41082551	0.78813056	-5.1812861467651175	8.003930697366194	15.811488082760434
H	0.55350032	-1.72112909	0.56037687	-10.229876263290697	23.897243925751937	-8.366940998809808
H	-0.00406181	-0.54226759	1.80626576	-6.566938014818054	-13.290545643358287	-10.573000311605574
H	-1.99898031	-1.1466929	0.55238728	-14.840579937060582	-14.911319016737272	5.5155523106729305
9
Properties=species:S:1:pos:R:3:forces:R:3 energy=-167498.00535432354
C	1.20400228	0.2655196	0.34015859	15.06767434244043	-40.35583599795517	-104.39324433494002
C	0.0208795	-0.69187921	0.71807259	16.64866814107542	0.2344003688964061	16.910098687700227
C	-1.4349675	-0.28279221	0.32956733	3.4183403451729304	-26.03869884349862	-19.60941487781975
O	-1.73590049	0.42664877	-0.60753174	5.345687704833557	6.778669125646875	11.516173337932624
O	1.93966352	0.25567128	-0.70440163	-56.447613368408206	0.4872352867916789	87.54546233558894
H	1.23309504	0.97154106	1.14695447	19.00719368345344	31.905174923341868	12.46734117381383
H	0.09653827	-1.80715478	0.51767064	3.5551457491035827	24.262618458597444	-7.57872921281687
H	0.18052811	-0.60893917	1.82128838	-19.198342814288598	-9.168501099059679	-2.77056414126249
H	-2.24274572	-0.93509046	0.80173669	12.603246216617356	11.894937777239116	5.912877031803462
9
Properties=species:S:1:pos:R:3:forces:R:3 energy=-167506.54316844716
C	1.27617925	0.1347805	0.48458085	18.30490621347464	-6.925721106986101	-65.58022006299396
C	0.04897539	-0.67977587	0.18081784	-13.884261658603217	36.37720682197399	38.11184887997931
C	-1.15451146	0.27130167	0.07398823	-66.8146692342428	-34.00528973789808	-21.741406243512753
O	-2.29007426	-0.05316652	-0.33440259	51.173151268698284	0.49495468100733814	7.662753027459583
O	2.15691545	0.29318238	-0.37055159	-14.290310342996028	-0.033908790919526054	33.354497000565914
H	1.25867102	0.64527509	1.448483	7.154219208550922	9.08178496008969	16.27378248322391
H	0.11279968	-1.30742468	-0.6803272	2.6761957962384737	-18.124173147481848	-12.49498395599735
H	-0.18690343	-1.15618031	1.15358549	-1.5890025263843626	-15.334021366731125	-8.325988165423896
H	-1.10586676	1.2705862	0.45763464	17.2697712752641	28.469167686945667	12.739717036699263
9
Properties=species:S:1:pos:R:3:forces:R:3 energy=-167499.04240530313
C	1.32008491	0.1176665	0.48138775	11.235728504874558	66.65831969481475	-18.60015047725844
C	-0.02465452	-0.65532781	0.17885473	67.9786608527668	-33.401659914946976	1.4435685316327436
C	-1.19531173	0.2406872	0.06904667	-30.170825389298003	50.35539824815513	-3.2067809780321745
O	-2.32312781	-0.05781278	-0.32681549	36.336905056702456	4.570621411436583	11.792039414531352
O	2.20785202	0.30384639	-0.35473454	-21.875825389849993	-26.742523234315154	16.440454197117774
H	1.43794939	0.88020164	1.39572093	-18.164978210155983	-40.87866696126225	-15.475404316153925
H	0.2326255	-1.31453413	-0.73884065	-19.20780539271758	20.05860498770418	27.640419509068444
H	-0.1075713	-1.30779105	1.08040301	-10.364099393488575	-0.8039694695693533	-9.834474539171133
H	-0.92779044	1.37626924	0.39091597	-15.767760638833616	-39.81612476201686	-10.199671341734584
9
Properties=species:S:1:pos:R:3:forces:R:3 energy=-167501.15582756294
C	1.27387112	0.23564666	0.39512036	2.4491782195080107	7.078424555957464	40.827664299445466
C	-0.00714447	-0.49981179	-0.0229733	-3.167584106636596	30.361727203454084	31.747974446698233
C	-1.24475704	0.35984941	-0.00537812	-40.553259053436044	3.202530968387632	30.587394580320883
O	-2.3256168	-0.22235308	-0.16268841	23.78156928255694	36.56144444963691	-0.7624996929502152
O	2.31494851	0.13417011	-0.19571438	18.414990843365075	-2.6734949933038985	-21.237984748418334
H	1.35937139	0.88923386	1.41166771	-24.69983771888717	-24.343828060322974	-33.987607512681606
H	-0.04169665	-0.79857077	-1.05015692	19.78110000274978	-18.67564522855961	-20.62404283486255
H	-0.26260803	-1.34458973	0.66224598	10.451761231456727	6.390051425459923	-9.38836878373917
H	-1.1490958	1.51426303	0.29483039	-6.45791870067668	-37.90121032070971	-17.162529753812787
9
Properties=species:S:1:pos:R:3:forces:R:3 energy=-167504.13821997924
C	1.28560989	0.48960575	-0.03696074	-52.38866969666479	-37.40487327636045	-12.819949609536417
C	0.07172783	-0.20242606	-0.57614007	-27.033737534636657	33.56864957076637	-12.146009571731428
C	-1.29531357	0.34434394	-0.09306934	0.5858039300547514	-17.968314767685804	-4.048317823095935
O	-2.20629672	-0.37231932	0.29077819	10.762030986547188	7.886572571582654	-2.650944154042971
O	2.16349567	-0.20740791	0.39151672	43.00115002105594	11.731553378719497	15.99353428206293
H	1.08795153	1.54740799	-0.07994274	27.318902794951555	38.72366799508891	9.980942956830946
H	0.07778686	-0.09486499	-1.66126509	-2.7242243445134555	17.061022797444227	-14.889200808498792
H	0.22227925	-1.23355923	-0.52198538	-5.287244672018084	-49.144179783778526	19.99853822524951
H	-1.44928501	1.45870643	-0.15235987	5.76598851522374	-4.454098485776972	0.5814065027621539
9
Properties=species:S:1:pos:R:3:forces:R:3 energy=-167503.85094235488
C	1.21471106	0.46298339	-0.08273971	80.51554982012323	-21.924422950469577	39.494040927449454
C	0.09776063	-0.19974758	-0.71143986	-60.22310557951999	56.09887961354193	19.02986275042693
C	-1.27457426	0.36601772	-0.0820438	-17.176775367810123	-55.732114128129496	-5.247276166096344
O	-2.15859069	-0.3903768	0.33918959	36.39618911399328	30.956995954068226	-12.091170128854165
O	2.12065134	-0.2004649	0.46663719	-24.07904776465605	8.297871786193372	-12.230611402171238
H	1.40693413	1.52756052	0.0038608	-17.434288387018157	25.041223472098164	-11.367952223340128
H	-0.00344732	0.11153438	-1.74996176	2.136845659269539	-8.260372123082467	-12.975480808766976
H	0.1849646	-1.2078513	-0.44363327	-1.9705306738667525	-45.10210082956667	-7.325266171599567
H	-1.43939423	1.44992122	-0.16031664	1.8351631794848138	10.624039205346538	2.7138532229521455
9
Properties=species:S:1:pos:R:3:forces:R:3 energy=-167500.75878976454
C	1.24567263	0.45139857	-0.16118239	-26.169489658493088	20.31465403726136	-87.84853997516372
C	0.01775378	-0.05187397	-0.96266542	0.8240514069957712	-3.953820454046675	29.46257488561797
C	-1.21668776	0.35975529	-0.17280114	19.128527364111378	-0.05516949622786771	-33.5966640988461
O	-1.7504486	-0.4400687	0.54451153	-20.498764790021603	-14.01834344488376	24.857242064152626
O	1.69578328	-0.25515297	0.66351975	42.90873874371032	-16.46738343764399	60.59326729337169
H	1.70045394	1.37388801	-0.71565596	-0.08297130881402287	-11.54860435755389	31.84333220197176
H	0.1828515	0.3931362	-1.96235374	-14.878291109501431	-13.128080104195945	-0.023401129608338043
H	-0.01190461	-1.15726874	-0.7455596	8.711638256078675	15.589103682617665	-26.883491307046526
H	-1.56219894	1.37886558	-0.30099287	-9.943438904066033	23.26764357467303	1.5956800655509156
9
Properties=species:S:1:pos:R:3:forces:R:3 energy=-167491.14988963248
C	1.1999601	0.42096477	-0.15109213	-5.1885854474379975	-67.64011891875599	53.85818727390401
C	0.03877767	0.00164963	-1.12343303	36.951171043540356	25.506776413982557	-23.708271936156134
C	-1.33226491	0.24554042	-0.34641924	-0.39135184347571483	-65.73477183274315	69.77167069050645
O	-1.60158891	-0.33376825	0.75504972	22.92437782125781	38.248427312037016	-78.87272546305184
O	1.66817473	-0.30680898	0.73702113	-15.19288535866662	7.42205286426	-34.116943485894296
H	1.57036122	1.41688224	-0.08752661	2.714503142015631	40.646700575872764	-19.544726649642747
H	0.18331076	0.83846861	-1.89049926	-17.70477303898255	-23.661319365760928	7.209704847182366
H	0.39696691	-1.00888515	-1.67600122	-34.00508300385528	41.85657499973226	36.55904766561121
H	-2.09468149	0.96061815	-0.71486651	9.892626685604307	3.355677951375273	-11.15594294245891
9
Properties=species:S:1:pos:R:3:forces:R:3 energy=-167498.19443408394
C	1.20874242	0.41271213	-0.10127126	-29.853822543604437	37.846417425620324	-24.76335385388446
C	0.01686341	-0.00642267	-1.10106174	13.514724073246672	79.27997687876857	55.53534062461679
C	-1.32896187	0.22064007	-0.3326458	-9.607290394902241	6.145611711471728	-16.555584209579607
O	-1.60713999	-0.31800004	0.72449393	2.7927531246235837	9.421942063508329	-19.68792744744859
O	1.69432413	-0.30787128	0.71075094	16.282848925233726	-17.883284740440068	16.42981722281266
H	1.48868744	1.57477226	-0.16393782	-7.4839740559702115	-37.89964052893568	-1.0110074956718353
H	0.15816015	0.72993231	-1.86844852	-13.020792792752882	21.791087886014193	-17.065434683442536
H	0.25132843	-0.86674025	-1.60939083	2.433588059348385	-70.00832459680537	-12.280543488038075
H	-2.05206133	1.02693162	-0.84947045	24.941965604777245	-28.693786099201827	19.398693330635766
9
Properties=species:S:1:pos:R:3:forces:R:3 energy=-167504.16081025553
C	1.14676439	0.4198226	-0.01163625	-7.385352015627553	-31.57066104614616	-2.413189596919517
C	0.06370571	-0.04525591	-0.97105551	-1.9477735248336516	36.76546161501734	19.910734114293284
C	-1.33638234	0.25377192	-0.34563349	9.625722295202788	-65.9228318420688	39.59634156229362
O	-1.80987149	-0.27737301	0.67510761	27.415729848842595	24.382945471472063	-38.756535845058984
O	1.93289503	-0.31330999	0.56984385	-9.168132095334924	21.2648708220647	-7.393568781649128