18
Properties=species:S:1:pos:R:3:forces:R:3 energy=-241891.201732982
C	-1.2476401	-1.45800176	0.0040285	-52.19018412	-11.883459562	-50.700024303000006
C	-2.43025903	-0.6641091	0.0288182	42.981494554499996	-23.1376021725	19.0313840101
C	-2.31971376	0.72803462	0.20185184	-85.043803558	-4.2616449214	-7.9474729033
C	-1.24135725	1.43732102	-0.14150057	74.836370234	6.94455522145	29.025370734499997
C	0.00775057	0.72594955	-0.14334925	-13.0330641302	-45.59953609	-6.9378446596000005
C	1.22499412	1.44681855	0.02498119	-72.0942640155	30.169625301499998	-32.7210224255
C	2.33830557	0.75583036	0.06582161	72.6218848235	-35.130598397	23.8699988885
C	2.34999825	-0.65849566	0.15320889	47.86014220049999	7.278584391200001	-17.2014068755
C	1.30792681	-1.49350203	-0.04080856	-48.314200492000005	17.715099232100002	-14.9044576534
C	0.00074327	-0.83637075	-0.18688493	27.5559652325	45.3645511235	34.8333504855
H	-1.49430533	-2.56270833	-0.19746871	24.3980809035	29.85854118	13.094543023299998
H	-3.37673219	-1.19700084	0.00657519	-5.8659534709	4.938581495649999	8.0457099943
H	-3.22561373	1.27166075	0.53170321	2.81610688165	-3.57566868995	-9.96527658865
H	-1.14550703	2.52846333	0.01128106	-8.39855640965	-8.38435123405	-5.246460228499999
H	1.1692063	2.54194683	-0.0604375	3.5052193206999998	-4.67191160825	4.2630285424
H	3.34003405	1.19538375	0.12175035	-5.3024046376	7.560750833799999	1.3824979609549999
H	3.37625293	-1.01704013	0.19744602	0.8908651351649999	-14.6526847521	3.06930952465
H	1.46700736	-2.56378979	-0.20709166	-7.282919736999999	1.268316943965	8.961713217
18
Properties=species:S:1:pos:R:3:forces:R:3 energy=-241909.12681607157
C	-1.32892622	-1.43242104	-0.04104081	48.012801717500004	-14.4114734911	-14.12199691755
C	-2.48328486	-0.70464699	0.07993026	14.978481376899998	27.301148365	-3.7287202329
C	-2.40935118	0.73256399	0.15089113	26.957549150000002	-3.5948549011499997	-23.881759667
C	-1.16684822	1.35411032	-0.07318123	-57.241784391	10.09589041105	15.608305656099999
C	0.04473062	0.6273718	-0.12846763	-18.7740766248	57.346939586999994	10.48694782635
C	1.20241927	1.43163017	0.00906048	52.545774717	-27.387624677500003	-8.0558565483
C	2.47003198	0.77850225	0.07668125	-48.1530086455	-1.4337910974599999	-5.53524499155
C	2.43814877	-0.64314686	0.12721459	-24.0554041025	-12.4630122782	-22.561324026
C	1.24363962	-1.39641501	-0.07705761	32.680666813	8.219239128049999	21.8688217155
C	-0.00447462	-0.77080526	-0.1454925	-28.57638572	-18.89032384915	13.179289809550001
H	-1.26636048	-2.55039452	-0.10283064	-10.88589188135	19.8791747175	0.78066202855
H	-3.46140027	-1.12277018	-0.03155402	-13.9523880433	-15.583377417749999	8.96773196835
H	-3.33240068	1.31944649	0.21812026	4.5433962777	-1.4308209243799999	0.51520972763
H	-1.17855578	2.46455743	-0.12774389	6.9173670688	-13.8054474931	2.78087066685
H	1.15069958	2.53071754	0.08358676	-4.2378466402	-10.0580483767	-5.2798746756499995
H	3.37975199	1.35964029	-0.02200556	7.1943218723	-1.0321282271949999	11.15689711455
H	3.33038002	-1.24606591	0.2330154	11.1193779251	2.41564084355	0.2272908807225
H	1.30547428	-2.478003	0.00575569	0.930782601015	-5.2435085037	-2.3576210029499998
18
Properties=species:S:1:pos:R:3:forces:R:3 energy=-241896.72639096688
C	-1.32143476	-1.36994312	-0.11312793	88.8346944945	-39.909625331	23.6629169455
C	-2.45888273	-0.71323873	0.09141149	-74.8628896365	-0.21334467285300002	7.65356874255
C	-2.49729687	0.6700608	-0.04801293	45.1745338395	61.430927572	28.3358662695
C	-1.24603588	1.36206571	0.06189108	-57.732508639	28.9349741625	-33.313904023999996
C	-0.03543829	0.71250041	-0.01496797	74.68947580449999	-25.036852598499998	-5.8760539042
C	1.30034049	1.34106534	-0.0654418	-48.587235035999996	24.3782490025	18.8437650025
C	2.51182503	0.69808562	0.06293233	-16.14591159565	62.285313539499995	7.50570577835
C	2.47626016	-0.65860895	-0.02040541	25.150770727499996	-49.36851969399999	27.777805799499998
C	1.2819723	-1.32910505	0.01293827	-24.5742619775	-46.4506936085	-20.84224411455
C	-0.01892094	-0.7287283	-0.03920624	-8.08170720065	13.17347860135	-14.435640737900002
H	-1.31523159	-2.45545619	-0.08204294	-1.1333009007500001	-7.2516499024000005	1.9767378140699998
H	-3.34519927	-1.29164437	0.47884908	10.3902096581	11.82855286865	-24.790568060499997
H	-3.35542185	1.36126633	-0.07974711	-3.37527424845	-19.12826054045	5.12002032945
H	-1.27088312	2.47876388	0.01554169	1.29060016017	-16.442721360500002	1.80182044725
H	1.2632219	2.43025829	-0.05483387	3.5365122156499997	5.1051925244	3.28580009045
H	3.35039975	1.32228065	0.4408144	-0.88616774187	-13.323716781599998	-21.19907997045
H	3.41584146	-1.2192188	0.13064703	-8.84901728655	-0.502122979005	-5.6058327229
H	1.34807187	-2.43742428	0.00920024	-4.86192889225	10.48307368755	0.01566570286725
18
Properties=species:S:1:pos:R:3:forces:R:3 energy=-241900.20590099518
C	-1.19608744	-1.40720002	-0.02586601	-63.394746978	0.241960722375	6.76145604245
C	-2.46301194	-0.72587493	0.04483205	33.520985966999994	-24.342966667	-21.05993381855
C	-2.47720841	0.71443694	-0.08851447	-63.7376543825	-49.26682355049999	27.436743223
C	-1.37533617	1.4717892	0.02549237	86.12371974850001	-17.3514375126	7.32371349615
C	0.00857189	0.7650599	0.06744963	-54.8667989445	0.56869590342	-25.9251372805
C	1.25800414	1.40160791	-0.03953257	25.448018638999997	5.6679111851	21.84158744215
C	2.45496168	0.69286445	0.04689871	34.0516046205	-25.891699772999996	-12.681001766749999
C	2.48794703	-0.75184843	-0.04257716	-7.1516602248000005	16.54766901335	14.2675307864
C	1.27733528	-1.42580942	0.03220861	0.1187024598145	-8.0435884421	-31.668548051499997
C	0.02906962	-0.69669761	-0.0218465	5.17937767035	2.468379864	18.99229671685
H	-1.23406198	-2.52605891	-0.08132151	7.6621933134499995	19.7475462397	5.5705042666999995
H	-3.45074886	-1.31168182	0.13822212	35.9983593675	20.32896684425	-7.2421490382
H	-3.5441765	1.05624649	-0.04377238	23.988298484	14.32585041155	-3.1260379856500005
H	-1.45112861	2.53435427	0.25204866	5.880896577700001	3.7127624707	-10.327231842249999
H	1.40570443	2.47518274	-0.09905941	-12.850864304849999	8.313394537099999	3.0982041432
H	3.48845981	1.1694257	0.11959709	-34.625115525	-2.1188149364549997	-7.4713689171999995
H	3.44790464	-1.30905725	-0.15468523	-14.6615860472	10.98887940445	6.8450959318999995
H	1.28755496	-2.54513095	-0.11308761	-6.70435861585	24.118358857999997	7.384085492450001
18
Properties=species:S:1:pos:R:3:forces:R:3 energy=-241907.03048451515
C	-1.18221203	-1.41893219	0.03696677	-6.727372845150001	59.480713772499996	-7.29032210935
C	-2.40629768	-0.73997436	-0.01620692	30.627373249	24.8325378975	-9.38798378675
C	-2.5082427	0.69243669	-0.0534662	59.979278539499994	-11.924460864299999	9.558630376750001
C	-1.3375049	1.48010752	0.00680058	15.299758173099999	-11.83593218065	15.952550560899999
C	-0.02610623	0.79975597	0.06451215	-0.137935944732	-18.742068859	-12.66024745175
C	1.26635906	1.44751671	0.01700782	-27.350266910499997	-15.08292170205	7.77675713225
C	2.42741392	0.68326662	0.01814505	-13.7966384394	-33.013658267	-16.77010914945
C	2.47159295	-0.79959969	-0.02071467	-26.602880967	49.522101625	-3.5804883030999997
C	1.26655877	-1.46242218	-0.01471827	-14.5038993739	59.123047744	2.8770323263499997
C	0.04771098	-0.68012968	0.012908	-24.910251277	5.6123818623	14.84373975185
H	-1.0856964	-2.46813624	0.02683107	-6.4975072763499995	-33.257175563	-0.2182853528405
H	-3.32569541	-1.22112156	-0.19051831	-26.647156839	-26.58858355	3.4803602634
H	-3.47442771	1.1333659	-0.05630439	-20.5089989967	11.79308605035	-2.48901887725
H	-1.39090895	2.60911545	0.15720309	3.16371859755	-31.798377822	-10.241355098849999
H	1.2094148	2.5449338	-0.04069946	14.66714359155	-5.3079852423	0.255690854765
H	3.33300645	1.18089976	-0.22921	24.536443003499997	12.52571336985	5.14958369815
H	3.40494257	-1.29927233	-0.20365536	12.64710305225	-4.66222626125	4.408608531950001
H	1.09981622	-2.50391977	-0.07355902	6.721192671350001	-30.8429875215	-1.6487227836
18
Properties=species:S:1:pos:R:3:forces:R:3 energy=-241888.67510059846
C	-1.16010757	-1.34934095	0.13483742	-70.231679546	-60.352164399	-27.333894062
C	-2.34662237	-0.73092205	-0.20190274	-16.0353833381	-35.024520787	45.316354992
C	-2.37282301	0.66857905	0.01298165	-97.81831504399999	-23.074878020499998	-50.9382377185
C	-1.25163167	1.3697588	0.02103345	48.7327458445	17.799430932049997	3.9799396858
C	0.01836632	0.74889663	0.05136561	-45.981876693000004	9.567462490799999	28.3192628175
C	1.21652141	1.4044426	0.13036036	46.742868243	14.92818675355	-39.072995833
C	2.33921836	0.67038449	-0.1409036	74.1752299995	12.9597783379	29.9856037085
C	2.36214311	-0.71844499	-0.04438585	22.2602019757	-13.9461617488	-20.5536438343
C	1.16395166	-1.37014187	-0.0513158	46.1896504465	-54.360163055	31.9909317445
C	0.00645749	-0.64658471	0.14843319	20.65158114075	-18.2001045133	-17.2013146341
H	-1.21591949	-2.48361563	0.17440262	14.908331792199998	27.9867325705	-2.7660428618
H	-3.21852482	-1.44868796	-0.37048113	15.6027250514	34.412960305	5.5959167724
H	-3.36965791	1.15788453	-0.18574423	22.1715118696	-2.6499570599	8.52677195565
H	-1.26662451	2.39075392	-0.22428659	-3.1232938040000002	40.657703084999994	7.173175531349999
H	1.43548015	2.45480888	0.12832482	-19.5336845538	20.4142209582	1.9083315918300001
H	3.37543947	1.14539379	-0.20724783	-31.937662336	-3.7375292866	2.9974304136999996
H	3.32446085	-1.27231958	-0.00098106	-12.335511603050001	7.368635057950001	-9.1346197213
H	1.22770319	-2.49982947	-0.03435368	-14.43331164255	25.372380691	1.19245531057
18
Properties=species:S:1:pos:R:3:forces:R:3 energy=-241896.11081821457
C	-1.33615721	-1.48178681	0.04913339	75.3637604385	5.2322781132500005	27.066855209
C	-2.44932405	-0.73705909	-0.08603208	-0.79847845496	61.7821367025	-29.124299636
C	-2.42077538	0.73297865	-0.2335675	35.085861318	-33.061162588	39.194062670499996
C	-1.2330229	1.41099588	0.10242736	-34.9394280955	-17.28855193815	-20.7249822348
C	-0.01463921	0.71692606	0.19230712	40.702901371	-13.69630285655	-3.9195676895
C	1.27038601	1.45467831	0.06521482	-8.93678497865	-15.447690318349999	12.7682851915
C	2.47715145	0.78357565	-0.06752061	-26.3586718605	-67.6832802675	-41.828707658
C	2.44647246	-0.69626801	-0.22172943	-44.154574559000004	43.5865981385	35.530926073
C	1.27131227	-1.4111872	0.12881907	15.513320074449998	24.7753482295	-20.1997135825
C	-0.02154344	-0.77481876	0.19519501	-5.1675477108	11.617642907550001	-4.72757929315
H	-1.40736377	-2.59613688	0.0843913	6.9136774128	19.01544930825	-0.72879007726
H	-3.30568549	-1.29990333	-0.31541853	-39.2392609565	-8.97750955675	-3.9466174800499996
H	-3.29151606	1.329298	-0.43079155	-15.6306280749	-0.082559281449	-1.434356076035
H	-1.27171726	2.49194522	0.16754929	5.23412294125	7.2662701643	-3.4568156460500004
H	1.35592995	2.55952474	-0.01973773	-16.42867760735	-12.30318099235	5.0756983367499995
H	3.34594806	1.23728335	-0.51841582	9.98086538525	14.92071520015	9.2201736198
H	3.28204778	-1.21964848	-0.65111395	14.55949787775	-6.7028596931	6.95626987925
H	1.41328592	-2.47894361	0.20359723	-11.7035427113	-13.034632233999998	-5.5799128895
18
Properties=species:S:1:pos:R:3:forces:R:3 energy=-241897.89858107246
C	-1.25023303	-1.32176911	0.08369972	56.55320234	-40.863862614	-2.4661660704
C	-2.41449287	-0.6867395	-0.09785724	-51.1047334455	49.860858166499995	-1.053108533625
C	-2.48953359	0.76652147	-0.1716523	58.4526833695	-14.47708018685	15.36504202395
C	-1.21997568	1.37978277	0.03417203	-84.177656812	48.899241571500006	-5.21124707405
C	-0.07856162	0.64367442	0.22414834	84.5353228405	19.43883733425	-20.79847557025
C	1.16044827	1.33175604	0.08972217	22.34808496955	48.132946141000005	-1.924125625545
C	2.37518975	0.75705887	-0.22460956	-5.06287678215	-58.229228578	43.4034989595
C	2.52114655	-0.71514099	-0.07711337	-41.414313168499994	33.688404108	-7.863095082649999
C	1.32300648	-1.44176358	0.04185411	7.486312023999999	38.8449289715	-0.443328310645
C	0.05170963	-0.74228239	0.13709566	-28.000568780499997	-21.39726061835	-1.810585686285
H	-1.2068974	-2.38455661	0.09841995	-11.8788013713	-28.578691755	0.36570947857999997
H	-3.31869653	-1.2935667	-0.13300656	-3.57571481065	1.768085461235	-3.3308830746999996
H	-3.3659321	1.39772728	-0.33261871	-2.213814354315	-10.3991570739	-1.195192574115
H	-1.15830872	2.53916818	-0.01043231	1.24156463193	-43.748712399	3.1432179464
H	1.14238399	2.4503332	0.21457968	-0.7396814805649999	-19.1242710999	-8.085373796299999
H	3.28766072	1.3179163	-0.23450908	9.840289491650001	14.5341545531	-6.3853186736
H	3.51727591	-1.17456298	-0.02660984	-7.4368245129	0.0378021399445	-8.192881148
H	1.35638037	-2.5080601	-0.0454266	-4.7796265031	-18.3909058492	6.48122666925
18
Properties=species:S:1:pos:R:3:forces:R:3 energy=-241908.80511496493
C	-1.26365076	-1.47891058	0.05051723	45.0527751915	34.4593116085	-6.84322804355
C	-2.39408943	-0.76552128	-0.06620237	-67.2645043115	28.741959033	12.21670467985
C	-2.36914436	0.65595001	0.00399116	-8.49762367325	17.12233293535	-16.50039529585
C	-1.20492447	1.42742263	0.03092635	-33.8740399255	-10.49119093075	-17.6520061145
C	0.02298716	0.75104687	-0.04479826	3.8436530173	-6.7220459043	32.529390917
C	1.27038673	1.47456394	0.02662111	-4.33126411805	-21.05882692175	-26.437999464500002
C	2.43971803	0.73764607	0.00321925	5.2338923377499995	-11.848546192099999	-8.43817409095
C	2.34723635	-0.68251515	-0.04939039	47.073553661999995	-4.9132842917	5.5323163271
C	1.19822713	-1.41049957	0.05249938	-13.553582350400001	-5.58694629625	-8.452240904449999
C	-0.05056781	-0.7025513	0.05337976	26.5625253545	-16.3695278096	-1.403782664005
H	-1.12535449	-2.53067667	0.02339335	-6.95866815565	-25.238861264500002	1.803713701985
H	-3.45987193	-1.11423287	-0.10270259	25.203117722	-12.094876850799999	-1.883945271705
H	-3.35638168	1.14244077	-0.14220704	13.05730055805	-0.484255819825	8.633356893350001
H	-1.30309192	2.51700521	-0.05675637	5.88451705265	-3.63447258245	5.1438877917
H	1.22520312	2.53648998	-0.21717552	3.5015757854	3.91650066295	12.3231281951
H	3.48899607	1.09510738	-0.074461	-19.51239985075	10.46840730495	2.67207193555
H	3.33249107	-1.19398567	-0.18054573	-16.99287213045	2.116522737665	5.5476283995
H	1.24364628	-2.53117136	0.02699515	-4.461808759399999	21.45643347645	1.2440782100799999
18
Properties=species:S:1:pos:R:3:forces:R:3 energy=-241908.34549105796
C	-1.25630379	-1.35025031	-0.08208374	27.0574004655	-0.684677933745	19.79336715515
C	-2.48728597	-0.78784597	0.08476996	-9.58810150405	46.5115729325	-18.94638356
C	-2.53502834	0.65321958	0.05021709	50.01328708	-2.235246643605	13.4965771652
C	-1.28271289	1.36889132	-0.01749998	-44.214070262	13.94789127505	3.9987569314
C	0.0236924	0.7771763	-0.08913626	-19.0032042624	-14.3234290748	-5.915902189
C	1.31513928	1.37648535	-0.14151365	0.59147952922	29.948245941499998	40.115323653
C	2.4897949	0.697504	0.12655638	-3.7345314411	-24.8911111865	-28.60405814
C	2.48217834	-0.73828819	0.04698846	5.34241434485	16.957428372499997	6.3142005542
C	1.24407698	-1.33916979	0.03296624	3.03928494895	-19.2965780351	-19.39101016835
C	0.01372101	-0.64567746	-0.05424641	-23.02831917385	-10.30726157915	0.19892803384349997
H	-1.21347318	-2.40834906	-0.02096304	6.06111321295	-29.1854095635	-2.7836148485
H	-3.42894014	-1.35013416	0.13671026	8.7443463579	-2.2850039607999997	0.593086835615
H	-3.48139229	1.18580327	0.2432328	10.3570027541	-0.9192109173849999	-5.901650892699999
H	-1.42667178	2.460726	0.09874132	11.73478948555	-7.196212821	-6.56977841325
H	1.42155906	2.45850839	-0.04000072	-9.0060352097	4.7125208846	-7.688758836650001
H	3.42002582	1.25468146	0.22361835	1.661399057995	0.040514267708	-1.20191466614
H	3.42213602	-1.32822999	-0.06184038	-15.24812604945	8.980115376299999	10.1030160592
H	1.20020355	-2.41653324	-0.06672237	-0.783745197345	-9.877578077599999	2.3617026849
18
Properties=species:S:1:pos:R:3:forces:R:3 energy=-241901.22437173012
C	-1.20867525	-1.37918963	-0.03744393	16.6562602015	-20.5250490003	-23.6255591785
C	-2.40116833	-0.69200864	0.07474327	-29.0069224545	-34.0271606495	18.77313115045
C	-2.50331565	0.69986763	0.14853947	18.63988844815	14.985445602599999	-14.6303162126
C	-1.31872508	1.4079749	-0.08634907	-12.135393885749998	-15.321896109099999	23.129761653499997
C	-0.07406214	0.73617871	-0.08512719	73.0392771585	7.004419890049999	-12.53203190575
C	1.25128838	1.41546366	-0.04297909	-22.650798184	-28.0596032765	-15.162479909550001
C	2.44462969	0.67975639	0.00693447	14.46255216635	21.304050683649997	34.329943045
C	2.48079786	-0.74111129	0.18766289	-36.617990972	17.296277155400002	-20.7711490555
C	1.2822117	-1.41416818	-0.14636424	35.347826894	-28.925980625999998	70.4048627745
C	0.04893569	-0.70894715	-0.13227055	-40.9844682445	10.2138441013	-3.83302219595
H	-1.18085749	-2.48428079	-0.20536446	-6.827500884849999	16.1831540609	9.6645004436
H	-3.31596222	-1.31148001	0.21490052	10.0274242319	9.28767126425	-4.308780276799999
H	-3.45850704	1.22923116	0.32780049	9.8307655671	-8.20494171105	-5.8731021794
H	-1.37649174	2.47797882	-0.10170867	6.8566722276	17.305293752249998	-0.31188200961
H	1.27022103	2.50123787	-0.0684226	2.50571457065	4.56500382565	0.8097964747399999
H	3.41418905	1.22761873	0.22560212	-25.033854753	-8.2388634859	-10.516857100300001
H	3.3419439	-1.18010197	0.72187021	-5.5046439071	-4.76383016335	-19.768300554699998
H	1.28272293	-2.50568055	0.22831683	-8.5209376871	30.000131729	-25.8850122715
18
Properties=species:S:1:pos:R:3:forces:R:3 energy=-241892.99162684687
C	-1.17252819	-1.43314048	-0.06726702	-70.1410523705	-11.740715995499999	-1.39716664959
C	-2.36893768	-0.71670342	0.11406468	4.56265166995	10.10963437965	5.007785606
C	-2.39952749	0.74574086	0.17118311	-37.286741121999995	-29.93694637	-22.5785731678
C	-1.27981548	1.48080197	-0.05024992	57.713137945	-46.273590120499996	-9.6159353465
C	0.00439934	0.72064192	-0.14246806	-87.271894575	-28.755564639499998	9.87012958455
C	1.16276926	1.39793788	-0.00232847	61.6802099555	20.829145835749998	-30.8900306355
C	2.36829292	0.74105194	0.02103816	28.2814438435	-7.53314759485	26.2996373645
C	2.37527458	-0.699153	0.21325589	60.1646837535	5.1996015973	-4.9964860345
C	1.30920208	-1.46852253	-0.06762936	-89.019407898	-21.79463656955	-22.01802218
C	0.02631614	-0.75800171	-0.20895623	39.9080111065	21.10231874185	16.93974108405
H	-1.35845676	-2.54377639	-0.05789345	21.64866455405	19.955135510399998	-3.3712156268499998
H	-3.30019372	-1.32704453	0.20668016	12.048848392199998	17.2756150818	1.090766085175
H	-3.39207686	1.23582094	0.14533099	8.50398832985	-4.9769308577	7.39169540795
H	-1.20185783	2.54190461	-0.26027749	-7.47212990875	6.459803604099999	8.96902334795
H	1.22620174	2.4684159	-0.13160737	-8.17962144675	12.2723493044	4.31645937335
H	3.29472498	1.40544747	-0.00480783	-19.824106601700002	-30.1354959835	7.5501891935
H	3.25842629	-1.27707892	0.55795446	2.93320733895	17.647693829050002	-11.907557627749998
H	1.17012135	-2.63063645	-0.22411728	21.893012022649998	50.2395091135	19.369448741099998
18
Properties=species:S:1:pos:R:3:forces:R:3 energy=-241901.91129827854
C	-1.30901521	-1.45460079	0.13512651	40.227858161	7.6034124813	-34.531951711
C	-2.46777507	-0.75330304	-0.16599401	-1.6256462913549998	26.033290322	19.89441760885
C	-2.4775127	0.6827306	-0.08637685	84.84848239349999	3.53637385355	-2.059388414505
C	-1.18846359	1.35740559	0.02968722	-56.1019112905	2.3396569903	1.9201661634499998
C	0.03295945	0.68323148	0.08677594	-3.14702290415	14.9878899997	10.41781289705
C	1.27854607	1.44756257	0.09127511	-23.5051841515	-43.3790549885	-9.5634038692
C	2.44311163	0.76834523	-0.13470923	22.6228029191	-0.216012294141	6.71962456755
C	2.45763477	-0.64159992	-0.0896534	-70.4454489905	-1.811669522735	-3.00487890675
C	1.26207615	-1.35369697	0.10561898	-11.9207250876	-48.517823382500005	-13.2845603073
C	-0.03937847	-0.73934748	0.12776955	25.008949575	-5.36413719455	15.6731052396
H	-1.15470053	-2.54492112	0.0081738	-15.480412955	8.78836856605	7.02798756775
H	-3.42172948	-1.21880358	-0.37850631	-3.4223173624500003	-10.94469577385	1.949584251945
H	-3.35510512	1.28542784	-0.19517766	-15.402307549549999	3.9481625235	-2.1837943906849997
H	-1.0702588	2.45312178	0.08055367	-16.070388949399998	-4.56666417085	-2.4478100318
H	1.24194357	2.50608132	0.1647961	-3.09472203035	24.336970976	-1.812527367755
H	3.40922064	1.25834688	-0.34245385	-9.520488557850001	3.31647035595	4.72965472465
H	3.21504204	-1.18200223	-0.55037248	46.7278790155	-23.343992305	-4.43254517525
H	1.22883536	-2.51825262	0.02770001	10.3415061989	43.185117445	4.9617110267
18
Properties=species:S:1:pos:R:3:forces:R:3 energy=-241881.82558053845
C	-1.25253374	-1.341985	0.07298688	9.8857414415	-31.969485618999997	20.138811198149998
C	-2.40494732	-0.6771673	-0.2073263	-41.3834122995	-40.6390242015	11.206200142850001
C	-2.48539269	0.68062082	-0.12014515	1.22499346442	67.51148066	7.259490421399999
C	-1.2912409	1.38441673	-0.01172888	2.8085200264999997	-8.514596090849999	26.012074799999997
C	-0.02738461	0.69681101	0.16114279	4.5708380942	-33.109128116	1.355328256585
C	1.23339961	1.29887753	0.11725332	-56.06432292	107.65032586999999	-25.516738481999997
C	2.42986893	0.76250487	-0.14870263	39.943754649	-27.442738914	-7.8325862396
C	2.51017636	-0.63150282	-0.18511108	-27.2169780875	-91.78480507	49.228082162499994
C	1.28699248	-1.42134915	0.06813099	42.8897143615	98.650332472	-0.404231793255
C	0.04194402	-0.75752804	0.26587133	-31.8682506825	12.099834826050001	-43.9504904615
H	-1.50240378	-2.34192166	0.38762695	17.2506637831	-24.336048562000002	-9.58897779735
H	-3.34287657	-1.28325861	-0.27144912	15.04026005455	9.3757848616	0.32661757326
H	-3.44312918	1.24863476	0.07508183	18.89664238505	-16.0643471377	-18.7511085162
H	-1.40764867	2.45228199	0.16122748	13.4632780198	5.96287612195	-3.3859973111999997
H	1.06115974	2.40904153	-0.04773626	19.8339303108	-17.3982039024	8.6073217582
H	3.2847539	1.36168266	-0.45831668	1.8171417437900002	4.74616593525	8.6385915928
H	3.43265438	-1.33042156	-0.00435184	-26.081486453500002	40.632336699999996	-26.02591101
H	1.4304352	-2.44095189	0.0111005	-4.90325303945	-55.61164824950001	2.65671374245
18
Properties=species:S:1:pos:R:3:forces:R:3 energy=-241902.38206679147
C	-1.21000926	-1.39294826	0.04998287	-0.0857810429475	-0.701032333965	19.50409812475
C	-2.38116782	-0.6848641	-0.13731613	-17.7715970896	-10.098058083949999	3.7578454549499996
C	-2.48857658	0.71852514	-0.15365756	19.429544013199997	13.2002516677	5.0470804424
C	-1.28720432	1.42957675	0.0634931	-8.98839404195	-1.5780866255150001	-1.482261647125
C	-0.04886674	0.69638617	0.2165673	-14.534016191000001	10.6714998074	-24.022427802
C	1.15903922	1.37927918	0.01547509	54.651645879	28.4474783635	12.87646129335
C	2.38589813	0.71161586	-0.13365766	-28.814137928499996	8.589057961	3.37467467935
C	2.48475178	-0.72184295	-0.16130292	61.18141458499999	25.852958385	7.216897954949999
C	1.35708711	-1.42657221	0.03992477	-74.2531739825	37.878469703	24.635602508500003
C	0.02095757	-0.73239963	0.2329451	33.987496847500005	-3.7761784332	-31.855336886499998
H	-1.24429591	-2.46324145	0.18842344	-1.8318150444949999	-12.049609383750001	-7.85497783945
H	-3.32569557	-1.22246128	-0.24090697	2.0343840770000003	-6.05857657445	-1.715729242595
H	-3.51937279	1.11752255	-0.34048406	25.8038398395	4.6966553638	4.8053157330000005
H	-1.17358864	2.5474979	0.03049113	-9.68352523235	-22.235550461549998	0.434237920675
H	1.25901778	2.51915072	0.05848873	-13.205371065400001	-32.8427810735	-2.63171632305
H	3.23960675	1.37492149	-0.13555791	13.212081627249999	-4.2816613052	-7.501162889400001
H	3.56876716	-1.15119704	-0.21043551	-47.5326852305	8.33039001505	-0.679669225725
H	1.29207315	-2.44521471	0.26385699	6.5456342268	-44.1552663695	-3.8687426781
18
Properties=species:S:1:pos:R:3:forces:R:3 energy=-241904.470422234
C	-1.18669217	-1.44238521	0.07321796	-20.29516037115	24.077311435	-10.425584235
C	-2.40169042	-0.71110722	-0.09821305	46.446542745500004	7.891712977	3.588651667
C	-2.44105476	0.75932744	-0.15873401	-1.7448221801550001	-76.04842223	9.576963355
C	-1.29792113	1.42248708	0.10199507	33.168623819	19.38981103015	-11.676170075849999
C	-0.07273822	0.70453365	0.20600521	52.394960028	21.23417782315	-24.853522816
C	1.1826311	1.43337021	-0.01545823	-16.9476046634	-45.86242408	29.0382845305
C	2.35169445	0.700007	-0.12384719	25.3832190555	13.6290819363	1.99500161127
C	2.48691833	-0.72383657	-0.12857264	-71.161011651	39.23026742	7.9409929449500005
C	1.30212637	-1.41148451	0.06776801	6.300410464900001	-44.769363489999996	9.137755928899999
C	0.04939417	-0.72559541	0.16434302	-24.294770535500003	-5.54926568435	3.7749562346500003
H	-1.10611829	-2.53849204	-0.08137919	-10.7389743915	11.44616614495	7.909515567200001
H	-3.28173447	-1.29227532	-0.25393721	-20.4209084597	-6.15367745785	-4.8559562616
H	-3.33581493	1.20631853	-0.50968637	-22.65040615805	15.2071016868	-0.1897716912725
H	-1.17900309	2.51623279	-0.04243033	-7.7467556169	-10.8212075996	5.6964137777
H	1.20534828	2.50652473	0.07774367	0.432683653085	11.00091690715	-3.2547839197
H	3.30304463	1.24495809	-0.09425918	-2.4781574524	3.6689939263999998	-9.71133601445
H	3.41255471	-1.13423391	-0.3699701	37.3543079475	-23.483968629499998	-0.345557038715
H	1.30751702	-2.57238441	0.21989555	-3.0147487365499996	45.708380942000005	-13.33799113825
18
Properties=species:S:1:pos:R:3:forces:R:3 energy=-241887.1392365514
C	-1.21472139	-1.33860292	-0.09458647	-29.110463426	-56.516536383500004	21.8390277433
C	-2.40190516	-0.7024272	0.13237219	-26.510639567000002	12.42470903685	-41.52707828
C	-2.5312392	0.6771249	0.09233004	85.04241993699999	47.7545257975	-3.5549604956499996
C	-1.30802625	1.40316211	-0.00533427	4.1595336916	6.31878956385	-17.7687837269
C	-0.0317137	0.67919232	-0.14898346	-49.868929289	20.4860308881	42.3676280375
C	1.15781913	1.35962747	-0.0603455	105.550450399	53.3199106665	-1.2737799408800001
C	2.44702818	0.73678625	0.11810149	-44.8456932485	-1.5271739847849999	-34.110639116499996
C	2.52518915	-0.68249329	0.04820241	5.767854742	-16.3287109901	-1.670046689245
C	1.34439084	-1.42169853	0.03860106	-49.2580606175	1.37899970586	-19.8517790217
C	-0.00970762	-0.73836245	-0.03620371	100.87957650650002	20.4415244126	-1.04817592476
H	-1.17658907	-2.40440572	-0.19236606	-8.75986597345	-21.9182169852	-1.310097686095
H	-3.34851549	-1.06317798	-0.19521952	-18.3359760955	-40.195112464	9.12864709065
H	-3.4544021	1.16743697	-0.11395849	-20.595705912699998	8.7542623084	10.7279515442
H	-1.22436889	2.54584802	-0.07834882	-8.8859830276	-35.9280253	2.11539969862
H	1.27900413	2.49702172	-0.21156131	-18.48579918945	-34.957184565	9.1422296368
H	3.37983746	1.28714214	-0.02990924	-5.4975413193	6.610272387849999	8.9318731241
H	3.55155175	-1.16345131	-0.10612065	-32.671442673	9.55826141115	12.4488532233
H	1.26629392	-2.53644142	-0.07469971	11.4020978161	20.432922902050002	5.4659255794499995
18
Properties=species:S:1:pos:R:3:forces:R:3 energy=-241899.79796363428
C	-1.20314355	-1.43299147	-0.16034425	-8.33836889615	47.8214008125	58.43008422650001
C	-2.38351371	-0.7014545	0.1739554	31.973175275000003	-5.72724546565	-47.127053673999995
C	-2.42428846	0.75842022	0.07750004	-24.4252921165	-75.173512551	11.03490786305
C	-1.24865415	1.37743152	-0.03984516	8.6064454649	60.1582268555	-11.2277154494
C	-0.05124965	0.68121922	-0.13886916	64.3861114245	-6.59846548865	29.270732858499997
C	1.18747555	1.40108733	-0.0661189	-60.842658043499995	28.5051292385	-19.4226259082
C	2.34483999	0.74675442	0.14893214	42.653345774	-1.5214181214250002	-25.098423732999997
C	2.42047747	-0.67131336	0.0987703	27.2635599945	-0.968661531925	-4.4562742754
C	1.28083108	-1.41854035	-0.04389568	30.9384573705	-27.087840127499998	14.236745219149999
C	0.08026327	-0.74176113	-0.04214544	-91.4100743825	-11.1031895594	-36.181458546500004
H	-1.24977576	-2.50510882	-0.06001449	1.5688371191300001	-12.8883834943	-5.5309788268
H	-3.23494474	-1.3627855	0.23847058	-18.73379019335	8.119918200599999	3.81637262325
H	-3.3555829	1.28361561	0.06679902	-15.4171814753	7.3226296597	7.78321403025
H	-1.23673281	2.51098116	-0.02218493	4.88997027785	-26.392109368	-5.14820007715
H	0.99420263	2.47332689	-0.35313175	25.044231910500002	-14.35564438375	17.23758856465
H	3.27004434	1.31596284	0.03338604	3.3655658410999996	-1.24285601153	9.45107690435
H	3.41720085	-1.16306778	0.01394694	-13.51666273005	8.63543232485	9.4516995338
H	1.35948917	-2.53924346	-0.01127697	-8.1164130274	22.499383925900002	-6.4809038243499995
18
Properties=species:S:1:pos:R:3:forces:R:3 energy=-241882.5306371341
C	-1.24800511	-1.47577833	0.03946246	-15.3557487029	12.733187338799999	-36.3949973875
C	-2.45585925	-0.73411048	0.09816059	40.077043472	-43.870240443499995	11.54906142665
C	-2.31577284	0.64206267	0.14141553	-85.72408388299999	-12.1212117705	-2.13092853831
C	-1.22813339	1.36360557	-0.11932125	9.009240598349999	75.672538525	13.882561303500001
C	-0.03795226	0.72176956	-0.09868766	104.806984715	-26.829333604	-44.103380582
C	1.30028318	1.48239207	-0.06514159	-113.704590159	-8.05896969555	9.3372279564
C	2.44166765	0.78716451	0.06282424	23.907126052000002	-20.3874709522	35.295710503
C	2.39756538	-0.64345281	0.16792281	-68.5531166695	5.79794849875	-36.0361783415
C	1.2107175	-1.38840239	-0.11372749	56.639217445499995	-40.30487973	7.5728805779
C	-0.04225146	-0.74643807	-0.24330574	-1.26468032677	14.53053407815	46.5770643265
H	-1.17307126	-2.57559205	0.06015141	-5.947148963249999	7.48010878985	-0.684871640685
H	-3.47089771	-1.16265213	0.18301448	14.56069701595	-1.80958256106	5.28822252235
H	-3.26703581	1.06117523	0.40135834	-13.41422865535	27.110900477500003	-5.5345762414
H	-1.2559161	2.49196964	-0.16930723	-1.43910881417	-24.155716625	5.71945106735
H	1.00859251	2.52354581	0.20798376	29.075181090499996	-5.599975394	-13.781372487699999