18
Properties=species:S:1:pos:R:3:forces:R:3 energy=-241909.03139418806
C	-1.24103456	-1.45334735	0.10604446	-55.7753767345	16.1710243168	-15.54007008045
C	-2.45694716	-0.74394623	-0.17083837	75.02454269	4.2785250976	21.79316070715
C	-2.35765944	0.675822	-0.15338427	-9.2741348388	-10.6893023976	7.9053647042
C	-1.19881891	1.3898716	0.04323518	2.9391107885500003	8.9308584687	15.408418542300002
C	0.03305103	0.71558102	0.17689987	-20.83108290515	-2.8114256306	-18.4064485251
C	1.25120714	1.43193345	0.06013456	19.8987298943	-1.34873991459	15.340736415050001
C	2.47144681	0.75433963	-0.14745592	-68.8339917325	-8.056363876	18.40647158545
C	2.36524658	-0.66734017	-0.20263234	-7.426355114	-8.53281376735	22.3416050112
C	1.19526187	-1.3898965	0.10124812	15.299896535199998	33.872425701	-17.8128289954
C	-0.05845696	-0.71574139	0.20362062	48.888864414	-2.75527367835	-6.951934533449999
H	-1.17533846	-2.54999009	0.1082107	-3.4979553104499996	5.4679318298999995	0.802064339385
H	-3.4016169	-1.20195422	-0.3165124	-19.751512619899998	-14.48773406855	-3.62686266695
H	-3.28305781	1.19959414	-0.18005407	-20.0764329514	15.51820886865	-6.772432769050001
H	-1.17741993	2.48352721	0.1900527	-7.68036486925	-6.617559458450001	-8.75954312855
H	1.14374237	2.5188562	0.27348908	10.830570101700001	-11.47429977195	-10.72276296545
H	3.39813806	1.26229594	-0.04057548	21.991917863799998	8.969092529	-9.7598780512
H	3.28013108	-1.21843017	-0.31770638	11.926351812999998	-9.89415846925	-4.10315113585
H	1.1762416	-2.46144044	0.08264865	6.3082048632	-16.5926136355	0.437268050665
18
Properties=species:S:1:pos:R:3:forces:R:3 energy=-241902.01083712632
C	-1.27293009	-1.48445276	0.07655328	-36.840523349499996	30.008433455	2.51134129605
C	-2.46945609	-0.73856453	-0.12356945	27.3133703505	-8.88785091595	-13.25137646365
C	-2.36685204	0.71978317	-0.20137075	-66.845958959	-31.3729143645	14.3045657085
C	-1.22474816	1.39733747	0.07029775	18.68462552715	-6.8890950797	5.2505649708
C	0.00703371	0.72331022	0.1914045	7.91355112845	-18.32981898205	-14.14704045765
C	1.24910172	1.45533709	0.05560792	28.2560774585	-39.451185573	15.757021853249999
C	2.48623607	0.78275853	-0.0983734	-13.3476995456	-32.155121436499996	-25.388984143000002
C	2.41401654	-0.6876441	-0.22419599	-13.3387982505	14.4881260945	25.926751505000002
C	1.21912844	-1.40730627	0.1261916	41.6126321785	1.0157830511150001	-25.1775207335
C	-0.05986741	-0.74660388	0.20117209	44.8655251495	0.0306266814385	-4.1772440404
H	-1.33117245	-2.59410088	0.09104204	8.4685906926	15.667224850350001	0.8795678697
H	-3.40405424	-1.34470772	-0.33910102	19.15311959775	26.148592072	7.02701903305
H	-3.33638818	1.28482182	-0.29728659	20.68663287275	-10.51448188425	-1.14184706646
H	-1.18601436	2.45126264	0.22396249	-7.0804959847	23.9059730345	-6.41144605015
H	1.2858553	2.52687819	0.13971815	-9.133282221	13.850968623999998	-1.47416054617
H	3.50203274	1.27807505	-0.31750158	-39.1562436965	-10.5381648637	10.24015596065
H	3.34037174	-1.23613524	-0.53730649	-17.90080423065	7.063362144649999	12.47641034155
H	1.34797831	-2.53238243	0.15864834	-13.19801481375	26.087943351499998	-3.16224273515
18
Properties=species:S:1:pos:R:3:forces:R:3 energy=-241900.13204561223
C	-1.30376302	-1.48386883	0.06258343	14.36104050565	8.26944151	15.304785329400001
C	-2.46097223	-0.73937662	-0.10433147	14.7630515872	21.6473039934	-22.6999167295
C	-2.39074783	0.72807661	-0.21827828	-23.3709729145	-29.71095494	24.9007965335
C	-1.22806633	1.40716952	0.08618741	-8.96427291585	-58.498112258999996	-11.5750504411
C	-0.00494383	0.72144953	0.19247445	26.030523080000002	-16.9301710388	-9.422827975599999
C	1.25831908	1.45752393	0.05909521	12.27952107325	-38.2264503845	15.50737050415
C	2.48293522	0.7865714	-0.08117929	-13.28093983235	-50.26280006699999	-39.676715796
C	2.43139899	-0.69379451	-0.22512355	-30.6566598935	30.8259228625	30.544355989
C	1.24138746	-1.40941322	0.12903045	35.547529525	2.3480509577	-23.464828538999996
C	-0.04314339	-0.76021116	0.19866161	19.534768390249997	4.0944112632	-4.535463517299999
H	-1.37438889	-2.6193776	0.08801702	9.14926304355	32.254972752	-0.179244872101
H	-3.3522061	-1.33333543	-0.33011357	-6.07928476875	12.624988176599999	2.9287566914000003
H	-3.32176222	1.31313693	-0.36029687	9.002483915800001	-9.72757050085	0.32403481405999995
H	-1.22519228	2.42687859	0.19872043	-1.60191949724	62.303070009	-0.85482872622
H	1.32984725	2.53467286	0.06360638	-13.5454651072	10.9594774582	0.94812167818
H	3.44684183	1.25952709	-0.42412894	-24.047102376500003	-1.35902483069	15.537095295299999
H	3.3155594	-1.22900778	-0.6002012	-3.5111227703	0.88756058701	11.62654420265
H	1.39107514	-2.52082906	0.18387457	-15.5900879796	18.6263520227	-5.05199229695
18
Properties=species:S:1:pos:R:3:forces:R:3 energy=-241885.80638913822
C	-1.34537305	-1.45858426	0.0344711	83.946130898	7.689427586800001	28.154842522
C	-2.44546683	-0.67486908	-0.06271776	-67.208467661	-13.29362302485	-41.381336868
C	-2.47276455	0.72906947	-0.24305078	35.1921695315	32.503102118	25.554096248999997
C	-1.28572902	1.42319311	0.12824262	-2.022902328735	-44.1575724045	-37.568538599
C	-0.00786069	0.69326997	0.19123137	8.15158006115	6.539338751250001	8.3511673904
C	1.28474241	1.43319463	0.09470518	-58.861543375000004	-47.280635605	6.128403314250001
C	2.4424855	0.7199315	-0.06848427	22.86837258625	36.683482366	-64.3768872845
C	2.46735193	-0.67012547	-0.18412002	26.7128788365	-13.719732172149998	-4.51939045335
C	1.3634769	-1.39834282	0.11373698	-69.426873331	-49.331853737500005	4.13806450575
C	0.03347905	-0.80449132	0.17958007	-31.7238928915	32.479119354	-2.48657448015
H	-1.45976121	-2.55491663	0.0705556	5.7652258621	8.85579702945	-0.1676978630455
H	-3.42962568	-1.22012263	-0.26670267	26.059117913999998	13.502042468149998	8.52395859295
H	-3.34112139	1.33276033	-0.64398725	15.10326093075	-21.613220796100002	18.563305025800002
H	-1.31923226	2.49980677	0.04952948	9.084232856549999	10.4047376786	2.4491014114
H	1.27211981	2.46401606	-0.19563061	-2.9411400993499996	18.80919753785	7.517858582800001
H	3.17846533	1.3128741	-0.69979308	-0.49506420587	-16.0243143701	30.898793568499997
H	3.29961083	-1.2114626	-0.69263825	-2.46665033775	11.17059496245	21.0223685084
H	1.3904264	-2.53055495	0.19153911	2.2801036364250002	26.742857291500002	-10.61433319975
18
Properties=species:S:1:pos:R:3:forces:R:3 energy=-241886.80869110874
C	-1.30563503	-1.44020311	0.0409373	14.118191959799999	1.923078685655	18.1752915767
C	-2.47301677	-0.64022414	-0.07083954	18.23411852955	-53.351042139	-17.03899283045
C	-2.47631563	0.73379255	-0.23278528	23.458602244499996	32.030595546499995	14.79683499995
C	-1.31771988	1.42124557	0.12420499	41.425151533000005	-89.535498531	-25.772938970499997
C	0.00436624	0.68323779	0.19338065	-22.7466369986	7.1257865121	11.069360025950001
C	1.2687103	1.41073081	0.11066297	-49.305564938500005	-42.7854815795	-4.8709916098
C	2.43115986	0.69204406	-0.09446652	3.59812947085	86.7611078225	-39.862351613499996
C	2.48049449	-0.65668596	-0.16447096	17.4776237478	-44.1820163755	-2.182871976685
C	1.38323376	-1.40193118	0.10612847	-82.1905464525	-40.8673216665	2.8985015121999997
C	0.04557026	-0.80518468	0.17110779	-22.9991478311	29.814265308	-0.29262200529
H	-1.4612047	-2.57451954	0.06499038	11.47748210025	34.608512073	0.12121142589450001
H	-3.43250773	-1.13855914	-0.2111568	0.89346403661	-7.88057482795	-0.257424993085
H	-3.34390199	1.2536023	-0.67729658	3.9237877335499998	-2.5870714854499997	15.5484871082
H	-1.28456237	2.43612584	0.00312863	5.62923897815	66.10687474150001	-2.73193660415
H	1.19704824	2.42711485	-0.22563494	4.2321276734	19.2518409561	9.240489788149999
H	3.14295773	1.32565774	-0.66383108	11.64531532755	-12.948086740449998	18.6330856449
H	3.31971226	-1.1703458	-0.61840585	13.6458698711	-1.506659497425	9.394971072799999
H	1.37581501	-2.52120355	0.13791614	7.5501891935	18.10272065525	-6.588503417449999
18
Properties=species:S:1:pos:R:3:forces:R:3 energy=-241907.55773151488
C	-1.25966062	-1.48157545	0.0639809	48.0667629365	22.79033636185	-6.6522652852
C	-2.38041718	-0.75664957	-0.07449549	-34.298119762	47.615702490500006	9.09645484205
C	-2.38206054	0.66817306	-0.01480741	35.6745920535	6.48786805005	-8.0857427619
C	-1.17826664	1.41839684	0.01122652	-87.5050347135	26.101779561500003	-4.2990949298
C	0.02483075	0.74508038	0.00013034	13.819606548000001	-15.37998513075	14.2107562047
C	1.25539298	1.45921709	0.02366707	-3.69844199335	20.56916344985	-13.90914988705
C	2.41558343	0.74253429	-0.02550705	-12.4193359753	-40.858789337	-3.9577095084
C	2.34946735	-0.68191792	-0.04894588	15.28820493775	9.427532287	3.13374014255
C	1.17747122	-1.4059427	0.02725025	41.329220477	25.285904378500003	4.61988745865
C	-0.01934958	-0.71699255	0.06833819	-29.384881591	-2.4895723256499998	-3.2314929662000003
H	-1.17697542	-2.5583807	0.05672129	-4.1645147272	-8.072506121	0.319770955345
H	-3.40263558	-1.03785274	-0.1793728	-15.21233638625	-34.483986183	-0.58735633864
H	-3.37239243	1.11465926	-0.07327133	2.57203613725	10.4882622663	1.165008882
H	-1.33987748	2.55280082	-0.01649452	18.816000341099997	-33.175541924	2.61068528385
H	1.23767446	2.58034269	-0.06340943	-0.47395014941	-22.8230128778	6.2126427728
H	3.41365646	1.08334373	-0.10398092	20.8563339884	26.898284050500003	0.6573237465749999
H	3.32389037	-1.16485036	-0.1114504	-1.0941790169749999	-8.917691008850001	0.9154267139500001
H	1.28111672	-2.45475631	0.12439618	-8.14659902555	-29.480812646999997	-2.12666698563
18
Properties=species:S:1:pos:R:3:forces:R:3 energy=-241908.47504802453
C	-1.26265247	-1.4819836	0.05999013	51.1577722505	34.8430358325	-6.4632165359
C	-2.38285807	-0.76091994	-0.07223793	-49.451536954	45.7270598255	9.4547435
C	-2.37866285	0.66395095	-0.0085205	23.8889083755	10.244791091	-10.706989686050001
C	-1.18417301	1.42058284	0.01775977	-77.099512983	23.102781044	-9.17098589325
C	0.02383455	0.74737324	-0.01469388	13.525379542349999	-13.37645580205	20.05851505945
C	1.26022734	1.46380167	0.0253102	-4.0121780551	11.37232690425	-19.5294414494
C	2.42338808	0.74207936	-0.01631954	-10.02956884445	-34.781003491	-5.10710653345
C	2.34767561	-0.68220666	-0.04923492	28.142389933	4.5875337876	4.13778778155
C	1.18335424	-1.40789449	0.03515412	23.869768285	19.647764105249998	1.427825384915
C	-0.02891135	-0.71213382	0.06374792	-12.32121418605	-8.366963730150001	-2.87597155025
H	-1.15879053	-2.539441	0.04592068	-4.6883536378	-23.294643156	0.7592389634000001
H	-3.42178664	-1.0508878	-0.15509205	-1.893741308385	-29.160273782	-0.5404169962150001
H	-3.37089949	1.12104485	-0.09662632	7.3233906512499996	6.89838840075	3.4783309526
H	-1.33449415	2.5533084	-0.03089627	16.495760165500002	-32.228222746	4.09817010025
H	1.23324847	2.57257251	-0.11568939	0.8313924925149999	-17.836904000799997	9.4864745416
H	3.43478955	1.07812728	-0.09531609	11.251513730600001	23.791593698499998	1.119144151885
H	3.33107425	-1.17262873	-0.13428923	-9.20875874655	-4.5006423888	2.4126660583999997
H	1.27239618	-2.47450714	0.09456086	-7.70333297785	-16.70927594615	-1.94924065273
18
Properties=species:S:1:pos:R:3:forces:R:3 energy=-241901.71759802607
C	-1.22183066	-1.46372284	-0.10299285	7.1048938349999995	45.1556243525	6.00074121665
C	-2.33935924	-0.70006242	0.15714482	-21.65696628005	-10.39991806545	-15.162779694100001
C	-2.34490968	0.72549851	0.13888701	-29.446683329	4.7458661507	-8.18225032665
C	-1.2158395	1.46760074	-0.02949558	27.220667743499998	-58.354676882	-16.8357619659
C	0.00455286	0.67497778	-0.16792185	-34.850184541	23.935951489500003	16.29889395755
C	1.1745553	1.4131022	-0.03743239	-28.2247153825	11.1681736257	-13.440886419949999
C	2.32007979	0.7414069	0.08701931	54.258697515	1.332553854925	2.51899733225
C	2.35669644	-0.64600023	0.20328116	18.6300416787	-55.670452142	-26.373199880999998
C	1.24488211	-1.47393248	-0.01081006	5.72807563825	71.5634147585	-19.13545536965
C	0.01575219	-0.74943551	-0.23400512	-3.6391538335	-29.578819134499998	30.630601697999996
H	-1.16911077	-2.52258451	0.01551755	-6.52642495525	-20.47655308425	-4.1593953295
H	-3.33353672	-1.17355789	0.22935487	8.8290239631	-0.00513344145315	5.71654546325
H	-3.33792072	1.19419706	0.14509438	4.07451018115	1.3384642226299999	6.838938818450001
H	-1.10378677	2.52564646	-0.17380231	-8.90546902335	13.98298912775	5.64293682605
H	1.03242413	2.4876411	-0.06493745	12.98410700715	7.4358098575	-0.9261958974
H	3.26111353	1.2651905	-0.04897531	8.11366884575	3.07083150775	12.2080109279
H	3.34652934	-1.15911435	0.17299016	-10.9437964202	10.69582847665	8.05325072875
H	1.36897771	-2.49149695	-0.31842692	-2.6824721534	-19.99924995995	10.30620080305
18
Properties=species:S:1:pos:R:3:forces:R:3 energy=-241901.0863536905
C	-1.24727841	-1.45116256	-0.12639015	-28.4631594015	12.13018224665	20.869040241249998
C	-2.37196698	-0.68953722	0.16787776	-21.2063439807	-18.806591718299998	-16.4789722307
C	-2.33435047	0.70776114	0.0758857	-37.656167929	-7.5717275604	28.9967759005
C	-1.15065633	1.35728167	-0.04570709	-58.7865972375	24.8090163405	-0.417343908265
C	-0.00922513	0.6620327	-0.16665589	42.149938333499996	-6.200005700999999	-11.25587213675
C	1.16554217	1.45193972	-0.11239587	68.40622224	-33.8671218205	35.768447678
C	2.37825465	0.76177431	0.17795815	-31.7926127345	2.17775488502	-28.337941701000002
C	2.37139246	-0.67211339	0.1056539	45.5822408275	51.98264097	-3.32647854785
C	1.22146165	-1.36253657	-0.00639929	-3.84796530275	-37.790840372999995	-12.23810468465
C	-0.04281375	-0.7883054	-0.17762856	42.3662444165	47.4021636495	4.7250195943
H	-1.25342932	-2.5154447	-0.08893723	-2.65011848235	-22.3271692321	1.84234209427
H	-3.32397219	-1.16286361	0.47250108	8.6136402941	0.440159818555	-9.2129787906
H	-3.23598582	1.26384794	0.37004895	3.1159375523499997	-1.6528136896899999	-6.14007185135
H	-1.16991252	2.4033602	0.15677639	6.88035520705	24.419065822	-6.699746545849999
H	1.16000931	2.54572109	-0.02776205	-8.50117496715	-5.0420532861	-4.79763663645
H	3.35628655	1.21883629	0.34761652	-5.54806654615	9.18546779305	-2.6888829306999997
H	3.40494685	-1.05539298	-0.01345565	-16.89910874735	-15.228386389850002	14.80052465595
H	1.29619067	-2.42559557	0.06838223	-1.7479168791250002	-24.147184295499997	-5.48220618655
18
Properties=species:S:1:pos:R:3:forces:R:3 energy=-241909.85365754922
C	-1.11998177	-1.40414102	-0.02930614	-83.067531563	0.76169258464	12.168485488
C	-2.36834968	-0.74287248	0.05332901	40.484981063499994	15.577497028500002	-13.2810090134
C	-2.45898109	0.69465751	-0.08547795	20.44200867995	-23.3783522265	27.77388554
C	-1.28638559	1.44295859	-0.00740742	13.97284257375	5.15078283635	4.72176808495
C	-0.02606995	0.75393439	0.0677163	-27.6565083585	-6.7606950509	-15.09260704905
C	1.19757654	1.38691432	0.00540434	24.621074487999998	35.8180274305	-14.082563719049999
C	2.37829321	0.68490443	-0.01357243	13.326899109900001	-5.5705503874	2.136825069805
C	2.42707555	-0.72432317	0.0198951	-20.2382704877	-8.0948285398	13.54465799495
C	1.22127835	-1.41024104	-0.02335412	26.838557744	19.55842830935	-0.944950880055
C	0.0230029	-0.66552711	-0.00755941	23.486505268000002	-7.40959023955	-5.5052434761999995
H	-1.03164182	-2.4903031	0.00425476	-6.5024652516	-1.33059141914	1.0042321218
H	-3.23770408	-1.28558358	0.32546992	-24.395544265	-14.546976107699999	-5.30989925135
H	-3.45260697	1.1074418	0.00716683	-5.2453533317	11.0731649837	-4.477397556
H	-1.18110717	2.56126003	0.09281823	-15.29503080135	-22.8932085832	-8.006000071599999
H	1.21512426	2.46469153	-0.22662902	1.7209062911700002	-3.68257647255	10.97536603935
H	3.32620098	1.19259539	-0.09224775	7.444157704199999	10.59920561015	0.8482357721549999
H	3.34967224	-1.25104891	0.23208967	8.5550208844	-1.6996630967500002	-10.1798992661
H	1.16160823	-2.49286131	-0.10003627	1.498565314575	-3.1266606151	3.72099501565
18
Properties=species:S:1:pos:R:3:forces:R:3 energy=-241893.02076290728
C	-1.27417205	-1.38400367	0.13556467	-19.1417969659	-36.632749596	-26.2023226875
C	-2.47306367	-0.72159328	-0.23457756	30.5976253975	-5.88723817395	46.123467242
C	-2.44661002	0.7392816	-0.0851846	-64.170958359	-72.8188202125	-17.99858011465
C	-1.27988407	1.34106873	-0.02228629	67.2363706845	13.430670684899999	28.349010669000002
C	-0.01321588	0.64712219	0.11139314	18.8016568034	43.186962273	9.65714419195
C	1.24097051	1.37954101	0.1533249	22.46896732425	-37.6928338855	-45.8142279485
C	2.50701269	0.76016861	-0.16670646	-67.2631206905	13.438810988450001	21.1788099228
C	2.44007159	-0.65789716	-0.12191507	36.964818636	37.2579156845	-6.80231898265
C	1.29069442	-1.34555847	0.09879196	-9.4991577341	-77.057081939	-16.5862489789
C	0.01478269	-0.75579321	0.2041802	-19.545468392649997	9.43917776375	-11.04694536575
H	-1.31185366	-2.51321025	0.23708147	1.8999214821850001	25.807298892	-5.7048999865
H	-3.36916915	-1.38468647	-0.32190942	10.05405893615	21.90749392245	0.29261278115
H	-3.3705242	1.30051631	0.07586108	-1.310360574085	-1.2091417798300002	-11.932047719449999
H	-1.32835846	2.38162646	0.17098427	10.24167794375	30.671187913999997	0.29393875127499997
H	1.18881876	2.42024821	0.00119223	-4.8479312598	36.359253845	2.31823392515
H	3.35907412	1.37044407	-0.55448065	-11.070582224499999	-14.3193704532	16.91294495735
H	3.38493045	-1.1311331	-0.32132356	5.949547239649999	-19.5743168905	-4.11841708755
H	1.36870052	-2.47164539	-0.15173322	-7.3473503549	33.776494645	21.137716379100002
18
Properties=species:S:1:pos:R:3:forces:R:3 energy=-241896.59732818362
C	-1.20669201	-1.41730985	0.07439078	-20.79298720695	3.09767375515	-16.20370083275
C	-2.40648889	-0.68703347	-0.08757671	5.94378215215	-20.404374188749998	59.44773747200001
C	-2.48993742	0.70904193	0.04888175	41.7413089315	15.388909486200001	-6.17586151455
C	-1.27782011	1.42562292	-0.04123542	-22.31612332445	-38.817487155	0.6261346232
C	-0.08061877	0.66593921	-0.10407086	39.839983074	32.094472716	8.0601457734
C	1.1521611	1.38973526	0.01166353	20.36738538735	11.62525282305	-16.07774520105
C	2.39324157	0.76664363	0.03781001	-33.04086948	-41.750763675	4.4869906616
C	2.54618385	-0.68473042	0.04718726	-118.342026544	45.111579084	-11.661987960600001
C	1.31943707	-1.43029595	-0.04353545	33.0194233545	6.98228195405	4.55850080695
C	0.03992806	-0.76252121	-0.04927428	-5.521477962600001	-4.84163578425	-3.0274088687000003
H	-1.2689707	-2.45706047	0.42227388	1.354152178735	0.6199544494	-11.9681371672
H	-3.29780396	-1.14208534	0.34008158	-6.8720073603500005	-16.0299872162	-14.2154605161
H	-3.39618716	1.09991756	0.50231606	-6.95091987805	11.29475188685	-15.4092948356
H	-1.16415302	2.49441487	0.00267689	-5.1086285165500005	11.926420994049998	5.29228114395
H	1.22526831	2.51467976	0.00257909	-14.1409755856	-22.7238994935	-0.2294779243165
H	3.21095491	1.42582469	0.03249629	35.008609145499996	13.945100972699999	4.10416579125
H	3.48275536	-1.08615014	0.11411047	56.4063079105	-32.3216171635	0.150947516616
H	1.33461275	-2.55273564	-0.15569649	-0.37148379022	24.846835314499998	8.1693134703
18
Properties=species:S:1:pos:R:3:forces:R:3 energy=-241888.99171920397
C	-1.20933616	-1.42070314	-0.06647715	-31.5071256015	-6.3565854775	16.788557429449998
C	-2.36705673	-0.77208027	0.24584982	-56.164404839	3.58470834715	-33.857667077
C	-2.42829335	0.61652086	0.09863888	43.136921313500004	36.624909077	-25.1770595265
C	-1.21066054	1.3365832	-0.11910739	-47.841002110000005	44.447902211	30.422136134
C	0.02822832	0.70495204	-0.09295367	-15.9993630714	46.67876047	-13.697755658599998
C	1.23547318	1.47583152	-0.12777644	43.979777106	-52.435085037	31.3766040205
C	2.42827594	0.7687045	0.1377728	-22.239332358949998	21.48064684395	18.26465043295
C	2.36560897	-0.66449593	0.12119867	59.7422181415	-9.7788336589	-10.893663219299999
C	1.19128668	-1.36941152	-0.09604367	32.6951948335	2.8928747868	-3.5033744927
C	-0.04174784	-0.69096581	-0.10840905	57.4375667625	-25.9491200445	-4.09484940985
H	-1.27784674	-2.47039782	-0.27483851	11.8452716224	-17.504558236599998	4.34450075895
H	-3.38445027	-1.23556777	0.20890752	21.5238850002	-6.50548615745	7.03421386225
H	-3.35039152	1.07906242	-0.26055631	-5.514006409199999	4.81714569255	21.8832113739
H	-1.18892996	2.4828104	-0.02911603	-8.274330304200001	-34.404658579	-15.6451099747
H	1.41821044	2.5305394	-0.04249397	-25.628119972500002	18.379767700149998	-4.18386236085
H	3.25065724	1.4252402	0.60958169	-13.564812740849998	-33.4082208555	-28.6863835895
H	3.40802305	-1.18607238	0.12041597	-43.7715421455	11.547931469500002	6.144660860999999
H	1.22279629	-2.44610417	-0.24422713	0.37949726184500004	-4.020341419	3.5739852844000004
18
Properties=species:S:1:pos:R:3:forces:R:3 energy=-241887.36988271304
C	-1.21149446	-1.41706068	-0.07013076	-30.77173104	-16.23589308135	15.752017757299999
C	-2.3675214	-0.77459171	0.24833786	-58.3461445525	6.92878194205	-31.947578286499997
C	-2.42903136	0.61397287	0.09656001	40.517957364	36.755430658	-24.459190830999997
C	-1.21301437	1.33255344	-0.11923162	-43.4256368955	43.079039835	29.309704849999996
C	0.03148896	0.70332791	-0.09377163	-19.9664350819	51.981487952500004	-13.672712118500002
C	1.23948573	1.47708661	-0.1287853	41.131362673999995	-63.2875163505	31.062983260499998
C	2.4327544	0.77047807	0.13710087	-23.9585506325	18.453445518400002	19.14975278665
C	2.3661189	-0.66563406	0.12253116	63.905764334000004	-10.4524726031	-10.694583217749999
C	1.18905992	-1.36701116	-0.09356194	31.686304521	10.773956942449999	-3.90123471125
C	-0.04490175	-0.6868219	-0.10991762	61.397259461	-28.9206767455	-4.34782144935
H	-1.27475541	-2.47544657	-0.27695621	12.1023945249	-11.119723830349999	5.6144111731
H	-3.39101316	-1.22405955	0.23748125	22.0998403018	-8.73938838265	5.41768332725
H	-3.36125626	1.06923857	-0.25537168	-2.5297434553500002	4.8963579948	22.259694648
H	-1.18527248	2.47210332	-0.02858499	-9.3030525177	-30.526368916	-15.6152698818
H	1.41913062	2.51946862	-0.03449477	-24.3284386465	28.821747844	-3.60527817935
H	3.24893915	1.42461965	0.62018271	-12.6168248127	-32.8782940125	-29.185178960000002
H	3.4199905	-1.19183719	0.12278514	-49.1925692235	13.8348724997	5.85855109855
H	1.20841028	-2.43082906	-0.2549259	1.880144926025	-13.2664809929	3.0997953073500004
18
Properties=species:S:1:pos:R:3:forces:R:3 energy=-241888.75819095978
C	-1.24105302	-1.39464384	-0.10048612	-0.077100435397	-61.124686124	12.89477121125
C	-2.39154885	-0.79365034	0.26254099	-31.7368066875	27.975202395500002	-19.64840979505
C	-2.42531155	0.60131826	0.06923426	-3.0973739705999996	15.56266922345	-4.050873322399999
C	-1.24655289	1.30385061	-0.11183932	5.916824602999999	-15.02356436115	8.2919945323
C	0.0530808	0.70833649	-0.10630551	-41.631772268999995	57.72190087800001	-11.221304672099999
C	1.28917875	1.46550017	-0.12779345	-5.34126132735	-9.65064117325	32.623015937999995
C	2.46446454	0.78846109	0.13629826	-60.0318561375	-56.330439359	-3.3339731616000003
C	2.39139894	-0.67860555	0.13166889	-9.17310744545	28.206958912999998	-11.81711493505
C	1.17844014	-1.33735135	-0.07162685	30.273166273	-8.53894782045	-18.0529333596
C	-0.05261571	-0.65863855	-0.12608982	53.520766314999996	-35.767064057	-5.4711833392499996
H	-1.19853438	-2.51098123	-0.26306558	3.8858073370999997	22.59653718045	10.9749740134
H	-3.37657853	-1.17224985	0.52023045	3.4680921572	-23.689897555	-5.629492642
H	-3.44806496	0.9988849	-0.11440658	17.69874944395	11.04616131385	15.3109193825
H	-1.19622926	2.33309406	-0.08303202	-13.0827361241	60.429185968000006	-9.73651791665
H	1.33671362	2.55882699	0.02901341	-13.48954375845	-7.98162528165	-8.550823900700001
H	3.22356201	1.31938743	0.61969909	43.3758265395	16.2905230505	1.78190091692
H	3.33673865	-1.19365492	0.16709227	6.1002927476	-12.753019239799999	4.34436239685
H	1.09035386	-2.38784736	-0.34587268	13.598296369049999	-8.81700952075	11.31522947765
18
Properties=species:S:1:pos:R:3:forces:R:3 energy=-241898.25417950997
C	-1.1473473	-1.383131	-0.00859862	-40.546552198	-42.4451108135	4.832965092649999
C	-2.32747618	-0.7334684	0.04157839	-53.466805096	47.8993447955	10.2955699817
C	-2.40819036	0.7336835	0.06083233	-54.0564582455	-46.242919855000004	17.195203641350002
C	-1.25263669	1.37809544	-0.0017559	28.9967759005	49.929347406000005	-33.678718761
C	-0.06127054	0.68119064	-0.1495398	32.767373729	-15.3099047271	17.91583957885
C	1.13125106	1.39430781	-0.10789979	-1.7504166210649998	67.5015647095	34.744568138
C	2.29551214	0.75680746	0.07624457	74.3721653885	-32.6287810255	15.823089756
C	2.43275524	-0.67793523	0.03466416	-32.44130038	36.7409026375	1.04910295083
C	1.27773586	-1.41244952	-0.01287732	32.765528901	-36.8137733435	-14.645489922900001
C	0.05018426	-0.74739696	-0.00687485	7.04279231245	28.1868964085	-27.147566434
H	-1.26085776	-2.4531478	0.0194275	11.121730080799999	-16.18193186235	-0.047264032153
H	-3.22372752	-1.35336038	0.1595107	-1.7668886290699999	7.83551490405	-4.17094856485
H	-3.30544422	1.37020105	0.24422727	3.01585563335	-23.867231646500002	-7.92448173435
H	-1.18220049	2.48004665	-0.18015715	-4.5208893760999995	-15.14951999285	13.051696893
H	1.08881964	2.50221122	0.2301422	0.365637991495	-34.015861078	-25.7664820725
H	3.20770868	1.2744737	0.43941152	-10.4808829543	3.67874845445	-13.72111579315
H	3.36703979	-1.16305969	0.13457451	27.043794859	-7.98144079885	-0.041360121346
H	1.42175643	-2.53467373	-0.16204333	-18.33622975935	28.815060342499997	12.143119103
18
Properties=species:S:1:pos:R:3:forces:R:3 energy=-241901.16407836956
C	-1.19328806	-1.4037352	-0.03716299	1.487408717245	-28.0748231075	25.133706068499997
C	-2.37755483	-0.73638403	0.03818185	-20.98793940585	35.1520445225	0.33853055007
C	-2.40776196	0.73200089	0.01876302	-17.18745536375	-53.782270684000004	23.092173282999997
C	-1.22930612	1.37916793	0.03317486	19.023866336	23.554302697	-40.1708990965
C	-0.04630652	0.6599664	-0.11983516	45.5444218535	10.78244315125	19.5506108507
C	1.17259416	1.40842227	-0.1184323	-65.47040908150001	3.2022524424	13.34555493305
C	2.28977932	0.76856589	0.0981718	114.18493724950001	-19.735001409299997	1.9130220670199998
C	2.41186756	-0.63281464	0.0043739	50.900418744499994	-34.0626735885	15.0288451813
C	1.29741599	-1.42303458	-0.02184155	-1.48825042002	26.5911201885	3.4246003371
C	0.05001763	-0.75896084	0.03602502	-19.21658168095	8.84463582005	-39.5777868945
H	-1.22550091	-2.49019253	0.08885605	1.304438676205	-1.5638768378449999	-5.7108956775
H	-3.25295719	-1.37855419	0.18722057	-5.6671732539	12.8762537502	-5.847182346
H	-3.26864276	1.32471531	0.23096926	-26.9153487095	0.887263108495	-4.472785485999999
H	-1.10063575	2.46635385	-0.14657525	-11.7551978953	-8.51528790135	12.825036712849998
H	1.18993433	2.44785569	0.08219469	-10.04169858855	31.086043610500003	-6.30822792355
H	3.21323276	1.36347526	0.32653919	-13.11211501	-12.00722446045	-7.6263805899
H	3.44253094	-1.16837408	0.08205109	-36.6565017565	26.245906749	-4.49190251615
H	1.38992178	-2.48417944	-0.03343199	-3.8288482725999997	-21.44324295625	-0.48208353485500005
18
Properties=species:S:1:pos:R:3:forces:R:3 energy=-241905.5961275167
C	-1.23196718	-1.43263441	-0.05028365	17.90500121435	-8.59775171295	37.503508412
C	-2.42824121	-0.72379169	0.03571627	23.950018303	2.095178077705	-7.799609939100001
C	-2.41725458	0.70941778	-0.00567876	-4.95149529165	-1.2243985073900001	30.266248168
C	-1.20249224	1.38890857	0.04499252	-25.911070467000002	-54.104654377	-31.248849681499998
C	-0.01548369	0.64680083	-0.08694392	16.288609041449998	37.0568294325	14.75657162885
C	1.18221483	1.42506617	-0.11947798	-23.875302768999997	-10.88275567375	21.58626324695
C	2.32978832	0.76964289	0.11687683	12.184604672650002	5.35182296765	-28.0775903495
C	2.41203209	-0.60720053	-0.01459253	7.820364254099999	-30.404149061	16.710106118749998
C	1.31391689	-1.42446147	-0.02837526	-30.0510951025	18.9953637434	14.05060207395
C	0.04257171	-0.76441289	0.05460375	-22.34351902025	-14.5056519605	-42.53712161
H	-1.18843958	-2.53724003	0.11801689	-8.5164178585	15.372490517	-9.625897417700001
H	-3.30719709	-1.33720873	0.18087862	-13.8390233627	5.9429750399	-4.8268079792
H	-3.3429246	1.26987655	0.19093203	1.5867135024499999	-4.88434355245	-8.413499516449999
H	-1.08782123	2.42815075	-0.0553871	-6.6648101156	36.3640965185	3.4580839653
H	1.22629612	2.50655849	-0.0889424	-12.8419399494	7.353207683799999	-3.35641088215
H	3.17259312	1.39372418	0.1934107	37.977629207999996	9.544033175200001	4.6770079456
H	3.36826673	-1.06655946	0.01893991	25.5515596105	-10.33414994725	0.49978235348
H	1.33705565	-2.50638748	0.07624326	5.955150904700001	-2.9918036882999997	-7.70895970325
18
Properties=species:S:1:pos:R:3:forces:R:3 energy=-241907.1063355408
C	-1.15329133	-1.38941442	-0.01821309	11.913622499799999	8.19516412265	24.192151978
C	-2.35742928	-0.75106565	-0.09767472	-20.32873624075	-32.101852027999996	-1.78589035747
C	-2.43643873	0.62730078	-0.10087172	-21.08631485895	42.584164724000004	-0.10439489626049998
C	-1.3266224	1.41021317	0.05925715	13.470495909350001	3.99859550895	9.1890421473
C	-0.06153285	0.76145996	0.1067786	30.954830219	25.520428138000003	10.78599444515
C	1.19320211	1.44282938	0.10265499	20.81314195285	13.01104149595	-25.223872037
C	2.36863982	0.6848682	-0.15639411	0.49828804279999994	51.766796094	15.1020387322
C	2.44334521	-0.72607853	-0.12793721	-17.4583914159	10.99136992225	10.96494276115
C	1.28935968	-1.42428777	0.07450025	-38.5248513135	11.7297853896	28.1204826005
C	0.04758089	-0.63867834	0.1435327	-7.5937732549999994	-62.00005701	-29.142747916
H	-1.10350283	-2.46519283	0.06034287	-0.412856364155	-10.0228582826	-3.2363817604
H	-3.25697811	-1.37164265	-0.07309537	-2.74056117505	4.0272364636499995	-7.508565261749999
H	-3.36540157	1.20105949	-0.22999715	-3.7753021399	-13.8380087073	4.6057514641
H	-1.44475435	2.49914123	0.24394995	7.85613085695	-12.5172963421	-11.0627878262
H	1.19198177	2.59754675	0.08426193	5.71133382415	-40.838496229	2.4644365441500002
H	3.31547065	1.26872765	-0.24198713	-12.58567027985	-10.506410761749999	-0.77748892439