20
Properties=species:S:1:pos:R:3:forces:R:3 energy=-322974.7701327078
C	1.02626318	-0.19089316	0.22770756	-6.982825905195	-0.678681327203	38.752298363716
C	2.49104729	-0.16763741	0.12397592	-0.550900357697	23.727333296454	-17.860344094678
O	3.08656596	0.77125972	0.65868517	10.078195067045	-18.499599259926	4.749765717577
N	3.10709295	-1.10454285	-0.7063195	-28.555407776368	-0.028270316933	-1.214772136197
C	4.47282105	-1.13426936	-0.58074436	45.353449173511	-10.306250497998	47.578391979946
C	4.97339234	-1.57454057	0.7124376	10.5217993793	2.566997344774	-23.096567256025
C	6.34890672	-1.47661739	0.92737471	19.137414686468	-16.594473637213	7.152410258083
C	7.18092386	-0.85965319	-0.07746682	-28.767966146295	-44.247992793893	-34.227045367596
O	8.53010522	-0.89019031	0.00426042	7.875704451757	5.981925605194	15.664354544903
C	6.71442431	-0.64002198	-1.39628172	-14.215511466471	11.380560234835	54.384928841348
C	5.33283621	-0.64532413	-1.55881344	7.151384175671	-13.55082613974	-7.221773641691
H	0.78329026	-0.16379043	1.32548326	-0.647397185506	-1.16617378551	-19.018858588529
H	0.5091671	-0.98320805	-0.2525115	-12.599148552721	-24.308974234226	-12.43579806681
H	0.7426682	0.74555765	-0.18994546	-17.68962071296	23.964032743798	-8.192494571812
H	2.68336607	-1.51399049	-1.5517424	-5.332394611395	6.55008629627	16.163142790586
H	4.35499963	-2.0469713	1.51984365	4.392180728446	9.774304528855	-23.529821309208
H	6.81057239	-2.15969368	1.76146683	-12.994928698363	39.738446522618	-26.776522500211
H	8.58349975	-1.18466933	0.91336714	31.474005508263	-6.285047801937	23.65511825029
H	7.49789132	-0.40279087	-2.08906124	-0.049799218086	7.134248449541	-18.640559303631
H	4.90462402	-0.35841055	-2.49784529	-7.598232539405	4.848354772239	-15.885853910061
20
Properties=species:S:1:pos:R:3:forces:R:3 energy=-322979.00574053463
C	0.8152862	-0.18846812	0.09736565	42.860306717709	-6.580190030888	44.084690000999
C	2.37288772	-0.06014202	0.06443567	22.818853770497	-26.216085871282	11.980590910248
O	3.08911359	0.66218064	0.74906204	-29.576178571151	38.256643781859	11.82297350284
N	3.10166186	-1.01308969	-0.63155223	-32.891459303942	-42.124903845567	-32.14914176388
C	4.53007369	-1.0726867	-0.52065749	-19.650938908596	-20.901646190616	14.303769157124
C	5.09833544	-1.51195644	0.66951612	-26.604550495997	1.592427147003	17.504199991241
C	6.44488097	-1.4224507	0.91766989	12.903181988447	0.320242605316	25.879990848457
C	7.24092603	-1.08821385	-0.17155389	9.35686880896	39.047153872662	-7.880234398943
O	8.60924904	-0.94149335	0.01397105	-16.58899267306	-12.527867084384	45.473222079852
C	6.67885953	-0.59141644	-1.38026069	12.62792908256	-46.116481377486	45.437573298671
C	5.32266862	-0.68861952	-1.57021887	18.336994499191	5.810355242255	24.155340915407
H	0.59697069	-0.55079837	1.14214605	1.631181667286	6.419843345142	-16.991578818361
H	0.39444115	-0.88010801	-0.58345981	-6.971945749718	-21.769280724209	-23.564097750643
H	0.33371136	0.75094626	-0.01347447	-8.071982473195	27.634522516608	-3.083992599107
H	2.62760219	-1.87009487	-0.99954831	7.719577489893	22.300410081974	4.006538512359
H	4.41662225	-1.84090783	1.44887194	-1.772309295913	3.458228541729	6.159352459206
H	6.83360635	-1.39833736	2.00331268	-8.503208565879	-13.606961686937	-37.142220536435
H	8.61678314	-1.11187468	1.01828478	21.95083835984	7.045733217057	-39.142726940632
H	7.42503814	-0.29931873	-2.04275431	21.000703272275	17.900863266637	-41.14977542967
H	4.84133934	-0.36712183	-2.42214122	-20.574869619206	20.056993193126	-49.704473438732
20
Properties=species:S:1:pos:R:3:forces:R:3 energy=-322978.69920556067
C	0.83544052	-0.16273224	-0.0785774	8.685528923685	-38.050836391238	30.062082160566
C	2.30065061	-0.14501783	0.22310984	4.387433643404	21.731386352282	-21.537179629214
O	2.71382471	0.79764347	0.90477698	22.644078223229	-29.421222376435	-1.339688745742
N	3.07235067	-1.02300188	-0.60203153	32.805910780334	38.693869993552	46.812007520056
C	4.51414056	-1.09735422	-0.47794236	0.465656206414	24.331008226526	-9.218357262117
C	5.07902772	-1.36161306	0.75841992	46.017077665398	-35.310064558696	4.235499237621
C	6.50308117	-1.44415477	0.91009219	-8.033542967514	1.555541126207	-1.550250706716
C	7.34229615	-0.9965749	-0.1949136	32.414041823249	-29.002767017491	35.986576749126
O	8.8098119	-1.01107554	-0.09808361	-64.387419296896	1.041745840465	-2.427749404825
C	6.79740098	-0.70093366	-1.4336542	-68.709811829009	-2.447533760965	22.62410274429
C	5.34611409	-0.73942898	-1.55484689	46.533442906016	-9.929392323803	45.407836338089
H	0.26925201	-0.91949327	0.49216294	1.705440471888	3.997674882772	-1.918641436765
H	0.7643305	-0.35253887	-1.0977748	-15.829995534295	-12.549860475264	-51.118250343791
H	0.5023695	0.81329922	0.11746604	-18.374280843562	31.62925814745	10.659080228258
H	2.6570759	-1.72189891	-1.15805291	-23.734111063717	-20.995629833388	-16.375500286432
H	4.46090909	-1.85995704	1.49738172	-3.289965601068	8.0925189284	10.625102552621
H	6.86056114	-1.96617778	1.8825756	-2.53890306903	27.24943459086	-37.593736587274
H	8.94059353	-1.3438419	0.80262847	9.59210041555	-0.472227857504	6.171165756784
H	7.42990317	-0.38818047	-2.22254678	12.882480598293	6.119512466841	-21.880866189529
H	4.82910239	-0.45256199	-2.40675321	-13.235161452367	13.737584039428	-47.623232695008
20
Properties=species:S:1:pos:R:3:forces:R:3 energy=-322969.97199128347
C	0.72937882	-0.23414466	-0.27099939	44.132071327094	-16.511081534847	42.513080773068
C	2.24139981	0.01473738	0.08327613	20.853564634343	-25.030813752807	36.894259229139
O	2.63046058	0.7145087	1.02815113	-19.219792223879	5.357342185543	-20.447760203103
N	3.14679757	-0.92733284	-0.44048984	8.502746908247	-17.968318906398	-58.526384700679
C	4.64002005	-0.94974705	-0.34830937	-67.911174834868	4.530397136465	-66.081286387869
C	5.22362411	-1.43826776	0.74045129	69.421950323856	13.931289665382	71.508393137453
C	6.64843981	-1.40083673	0.94146662	-63.379876885504	-5.612872961125	8.90967531536
C	7.26387268	-1.07637513	-0.23523144	128.639988163551	-15.996792215072	82.361144638206
O	8.68687482	-1.063889	-0.19077747	-13.914389819587	6.601794439534	-17.242668816722
C	6.76770695	-0.77132416	-1.41173501	-77.927122964032	8.422491691665	-68.797688669684
C	5.3655476	-0.74799051	-1.52990438	39.693113808637	-0.527794881914	54.911864133166
H	0.46754272	-1.2480417	0.13143925	2.147664227462	15.810369636062	-7.050632464453
H	0.50903347	-0.17523316	-1.29106299	-7.172969814679	-0.085724352327	-44.577502786188
H	0.19714453	0.52579279	0.25974922	-13.797992622453	12.636683719496	10.640978999441
H	2.88660959	-1.36084133	-1.37724545	-0.895879348392	15.033698968385	33.826556269836
H	4.61670753	-1.51264414	1.57839211	-28.786489304018	-14.754401877583	41.02156972418
H	7.14976164	-1.51313579	1.95983125	-15.733482518964	-2.180272766949	-34.376526549963
H	8.90852846	-1.36629601	0.69203923	9.841096600798	-4.285133078979	12.813575161645
H	7.45663158	-0.61745911	-2.20598316	9.215882038453	4.451074540946	-20.926923249665
H	4.83381532	-0.61764012	-2.3951658	-23.708907696064	16.178064344523	-57.373723553167
20
Properties=species:S:1:pos:R:3:forces:R:3 energy=-322986.87813480344
C	0.80736053	-0.25721575	-0.35528407	-12.786074311571	2.531645195449	-6.79745121224
C	2.2535884	0.03445738	0.1206327	-7.58931303414	-43.015450335027	0.808028298453
O	2.54599223	0.70493313	1.08741456	5.302904322509	13.235203476135	0.927263085632
N	3.14223834	-0.91304283	-0.49921562	-6.00713677711	30.776017996952	34.308249500816
C	4.54978359	-0.9622615	-0.33616743	37.440951539289	-2.962673396475	25.239203316671
C	5.23861443	-1.31966857	0.92587601	-29.262726044666	2.68695552376	-61.219060773324
C	6.62484051	-1.40297723	0.95964268	1.927704716546	20.827610075929	-59.042669423202
C	7.40697184	-1.12589428	-0.22761508	-81.637886635622	0.713298584868	-19.56095093178
O	8.72495523	-1.08740081	-0.24116725	55.878879240623	-5.281114067192	11.16371698492
C	6.71462534	-0.85129217	-1.51666285	44.917527860957	4.140110837999	41.186113002339
C	5.33988887	-0.68700134	-1.48414115	-19.167661873648	1.577897531078	-10.166365488833
H	0.67234544	-1.34052571	-0.17567379	-2.716829541174	4.215247105043	-1.443015192559
H	0.64410091	-0.10377597	-1.45594868	4.607644094467	1.087861617485	15.539798746217
H	-0.0173073	0.26577669	0.20770709	24.317468415342	-3.00342750044	-8.613102248063
H	2.79916083	-1.21954548	-1.38100168	-4.268650303358	-10.821913429855	-22.491679387519
H	4.66894452	-1.67948537	1.77144959	-7.243340982794	6.138790641389	6.167082327473
H	7.09872138	-1.62663777	1.87786849	16.764499234577	-7.582515311922	24.127814326849
H	9.13640548	-1.31090501	0.63490148	-14.276474686785	4.114282794968	-16.050568406079
H	7.33771286	-0.61777262	-2.4343939	-16.265316138186	-7.230827973542	25.542660473533
H	4.82184851	-0.30844713	-2.41505123	10.063830904745	-12.146999366602	20.374933000698
20
Properties=species:S:1:pos:R:3:forces:R:3 energy=-322985.9749649986
C	0.85942048	-0.2461684	-0.53043579	-10.29596725337	-5.341943084382	14.208827674554
C	2.18768644	-0.16933222	0.24446156	-22.403748315062	25.866807873052	-6.650781132654
O	2.36859413	0.6093007	1.1690166	2.740106652792	-0.622394893612	15.88355711209
N	3.1724354	-0.80870618	-0.42712339	23.032551030916	-28.672852800761	-20.118626483176
C	4.61113872	-0.7813835	-0.26829069	-20.344731353022	-22.599340560512	-27.890920310104
C	5.24149236	-1.12496103	0.9038749	55.858784817714	2.55735497071	5.210172521418
C	6.67021621	-1.33840366	0.95540629	-52.852877454121	27.953088056169	-53.795489265313
C	7.39594209	-1.17441262	-0.25275636	-1.056215701812	8.380814840458	15.992917627849
O	8.74125914	-1.250668	-0.34982723	-1.723726274869	-0.137316071126	-60.796654346101
C	6.74517218	-0.84243405	-1.46808328	-6.491185639287	-4.567023237687	-14.095018948921
C	5.36665286	-0.73906847	-1.47295791	-18.6563208402	8.265607646848	0.526420734544
H	0.60527892	-1.22255194	-0.94335348	-0.21440342998	-10.240938605567	3.355692754285
H	1.04999065	0.36046685	-1.38802766	1.445502854657	18.11371267969	-22.715658087698
H	-0.03865982	0.18452237	-0.04416986	14.347126880976	-5.643656072462	6.429909402081
H	2.86042499	-1.45460707	-1.16773208	4.057511861732	10.23345963661	7.850576023095
H	4.77237748	-1.14707526	1.85937093	-20.217317342217	-1.695969879812	13.435452522787
H	7.03012005	-1.3290227	1.9460658	27.428768566186	-11.127038348807	22.711040169984
H	9.26126013	-1.27424274	0.42099667	15.181856414896	-3.010240476948	53.670185858945
H	7.21816165	-0.64768668	-2.4723558	4.819550902264	-10.924962519085	30.671667695513
H	4.84780212	-0.60662236	-2.45041832	5.344733621807	3.212830847224	16.116728476822
20
Properties=species:S:1:pos:R:3:forces:R:3 energy=-322958.3056928694
C	0.87007002	-0.14576097	-0.57781369	-3.578693025748	26.100089837859	-58.121343202929
C	2.14177766	-0.31328786	0.28852032	-20.619109600154	47.558606846339	-38.180332248996
O	2.2721906	0.32793392	1.33045597	8.166824012701	-26.35709684831	6.552211282097
N	3.1348689	-0.77048221	-0.55300654	40.555000915411	-19.27963050369	9.087376697775
C	4.59403597	-0.7576796	-0.29381991	-2.384691318967	-17.655463019968	13.69560154717
C	5.29003095	-0.83753225	1.01755774	18.424640101734	6.95067301493	-129.943392463156
C	6.72500519	-0.91064942	0.8684773	-15.226464142844	-5.021640195077	92.127124498186
C	7.47396899	-1.21747868	-0.28208287	-86.182325162773	54.890097588775	-34.656356269453
O	8.77286794	-1.5336409	-0.33952562	8.207176400093	-15.092783744727	84.03617432808
C	6.74460477	-0.8827643	-1.48961499	38.659664022196	-33.061947988578	38.007143132648
C	5.38053634	-0.75931559	-1.49955035	8.820553808631	-0.671860488511	84.319089947762
H	0.86870599	-0.68367664	-1.61321351	-0.279331607282	8.741414361913	39.992395330224
H	0.8521402	0.96103215	-0.92845107	9.500572317025	-29.909784414402	14.53852406937
H	-0.11779092	-0.21542193	-0.14896211	-6.542614720625	-13.690367081013	16.831136581212
H	2.79799572	-1.16895624	-1.46981748	17.459847137262	11.747775063876	31.380329401199
H	4.80563736	-0.74731495	1.94474649	-14.077678971414	4.979167289273	26.954567971461
H	7.13514223	-0.72973481	1.96498778	5.411165497621	-18.108702993145	-50.281873713541
H	8.81744187	-1.72986439	0.68947654	29.459620424977	4.181296068629	-55.606394608516
H	7.40189357	-0.87101944	-2.33260943	-0.973347967472	1.720932350768	-26.472063988331
H	4.90037728	-0.57575944	-2.3747035	-34.800808120373	11.97922485506	-64.259918292261
20
Properties=species:S:1:pos:R:3:forces:R:3 energy=-322983.95896588825
C	0.93974307	-0.08895031	-0.37823261	-44.295524534059	1.601620446567	26.81002406364
C	2.23038908	-0.25102003	0.23949593	46.14592775438	7.578479756695	-0.670301589978
O	2.35020116	-0.06599959	1.45941727	16.182237865836	-14.959127210351	-17.164892763247
N	3.24748951	-0.5498398	-0.74125303	-19.829645699714	12.354353287159	75.558564325889
C	4.63475561	-0.6036331	-0.43939278	-8.824030047183	-22.10781223647	-71.763003612907
C	5.18313386	-0.58298013	0.78888274	10.153932398296	9.965536981277	73.656434525685
C	6.60864885	-0.79777651	0.92968184	-40.382968061451	-20.268130641675	-54.755150783056
C	7.33668043	-1.20385128	-0.21939972	0.06642365187	28.454152009268	-1.278785858028
O	8.68143468	-1.49322458	-0.17083324	-14.60209367318	-7.227867790528	-36.991315067996
C	6.77096673	-1.16887747	-1.52848953	0.508135211751	-9.35230529718	27.367681026505
C	5.41609873	-0.94406525	-1.57414493	-35.412542552551	1.837947868566	-48.11929173899
H	0.8698747	-0.23409192	-1.40492613	-1.456282199552	-14.408879126311	-49.197644418962
H	0.57872052	0.90403625	-0.18667104	-4.975243561731	21.262706774281	5.991465138809
H	0.23296473	-0.7277707	0.16221125	-3.921816940641	-5.122199302552	-3.68590564343
H	2.97161341	-0.183099	-1.63128835	2.436003333753	-0.827263853842	-18.475368968527
H	4.37552383	-0.41228713	1.6043425	44.320145850197	-3.641567012296	-16.396190566272
H	7.10263214	-0.89422363	1.85366446	8.810776581957	3.447788343362	34.19838512704
H	8.98155661	-1.36041452	0.70888723	15.80668110759	4.533231946731	41.084475367014
H	7.39533688	-1.41754668	-2.38863148	-3.680159647128	-0.305287799755	0.879909449814
H	4.78837062	-1.07433036	-2.55358408	32.950043161562	7.184622857053	32.950911986996
20
Properties=species:S:1:pos:R:3:forces:R:3 energy=-322979.0225290625
C	0.88449089	-0.01857708	-0.13009598	-83.022460229277	33.863055784604	-32.696521987215
C	2.28957456	-0.18214673	0.20246003	1.50925823367	-3.27077149353	-13.970899518494
O	2.48532576	-0.46564874	1.36377724	31.464695652007	-5.338157045142	34.894520051741
N	3.22304761	-0.19055426	-0.83260029	-11.05006140103	-1.877421295339	44.442994061903
C	4.55928336	-0.48158566	-0.60027301	55.864916621627	-48.907968774378	-44.552842638629
C	5.17231098	-0.4380391	0.64136825	29.433240585336	-3.855208257741	-4.21322166901
C	6.52528686	-0.75403166	0.80073409	-5.761203940161	-3.485225267831	71.270027530486
C	7.33422404	-1.23751755	-0.16721449	42.004949675215	11.507517974097	-15.472198769978
O	8.70742266	-1.36542754	0.01568604	7.444846654647	-6.148901830355	31.845893497798
C	6.76770943	-1.43352148	-1.42163711	-10.926011738887	-4.157747861144	-24.291055032874
C	5.40996406	-1.14985614	-1.62473412	4.562536037587	40.121235913283	70.345619668725
H	0.53550256	0.24153098	-1.20364838	16.908520822362	-10.904472641212	28.987188314804
H	0.31811834	0.72557826	0.54524957	26.877608889861	-16.901994917676	-17.277619117834
H	0.4294363	-0.97469169	0.17567483	-2.797494374989	-0.210242645385	-8.514107041542
H	2.87177217	0.12183904	-1.70360504	-1.090055533618	5.131176144219	-29.070801379643
H	4.70197733	-0.27653361	1.5605413	-28.699285709788	17.388535664907	23.555292405
H	6.95218632	-0.77471985	1.86785998	-15.349125247024	7.84381311764	-30.176642765467
H	8.98085554	-1.24662116	0.99989474	-22.866524273764	-4.02405079034	-47.427205406918
H	7.33685193	-1.79536204	-2.30274204	-3.124785635544	0.338753948497	15.615736393234
H	5.06811291	-1.45338758	-2.54475057	-31.383565088229	-7.111925727174	-53.294156596087
20
Properties=species:S:1:pos:R:3:forces:R:3 energy=-322981.40663589665
C	0.93525433	0.1360343	-0.24172311	-0.237096716074	47.646929515236	64.536681542533
C	2.27965377	-0.27342371	0.23971228	41.548085991014	-26.534906988218	-39.895492644058
O	2.62837993	-0.8279514	1.26295291	-23.043214928143	6.028313525885	42.750291949829
N	3.21620424	-0.20459627	-0.79182386	9.114810446829	12.424214198754	-13.731014068013
C	4.63067024	-0.51872397	-0.57660619	-57.49216540808	19.248236138132	9.956172960624
C	5.23757835	-0.17743551	0.64393637	59.924970517714	-36.170983147899	-33.026199134504
C	6.58997635	-0.53518551	0.8890485	-23.876475993838	-1.114062375278	12.438794109963
C	7.25887562	-1.24994865	-0.14548846	14.052088347965	59.112408663066	89.997094754014
O	8.59006644	-1.46415163	-0.07456411	23.236588953305	-20.855831524711	-11.285647248908
C	6.64820534	-1.44700974	-1.29438197	-14.399652247627	-31.811278015879	-91.612726590378
C	5.31971646	-1.13764586	-1.56748184	20.260692300577	-6.17547474558	1.991851790954
H	0.98929367	0.83999564	-1.04398217	-2.777889620989	5.982117075297	-21.507187613827
H	0.43165931	0.67216554	0.61118072	4.217982664476	-9.910607051866	-13.514148333495
H	0.40870112	-0.74523408	-0.4002213	-32.905545904225	-38.64934730822	-17.144517735709
H	2.76475855	-0.17468454	-1.73726996	28.155809957152	3.136891995259	18.628262683092
H	4.66668642	0.25447808	1.36791561	-32.623801430186	30.9346585418	48.28610597294
H	7.06648012	-0.31845042	1.90664602	-13.042992302022	-5.207084726213	-32.193607876035
H	8.92192362	-1.1154566	0.75509652	5.169516585614	3.964672902576	13.662236498854
H	7.32606599	-1.84860126	-2.04434249	-5.761358523307	-5.196861853977	-11.617744986854
H	4.81779323	-1.34536204	-2.49041539	0.479647309847	-6.852004818165	-16.719206031021
20
Properties=species:S:1:pos:R:3:forces:R:3 energy=-322979.804517527
C	0.93872295	0.19401384	-0.23437087	-56.671198597222	-36.278623462409	-1.537715168666
C	2.18164641	-0.44966095	0.20720251	69.538882983905	18.333091202568	1.967394089228
O	2.39697107	-0.97392781	1.29559718	-7.322059795225	-4.152628599988	-14.233316665913
N	3.25679182	-0.07592166	-0.72523107	-25.143079220078	-26.246218356649	13.069343616121
C	4.64572176	-0.51867661	-0.53468781	-11.658131029984	37.348953486944	19.158878745076
C	5.29638924	-0.03696959	0.70169822	0.652576940052	-31.37287264588	-81.355878044777
C	6.65712297	-0.35958812	0.7801188	-6.493874630374	-6.698623349113	-23.056721372127
C	7.36967748	-1.06414896	-0.23801736	-28.766477122543	-22.52561443931	12.327253798656
O	8.62606401	-1.62558891	-0.02067275	9.544869605372	40.164811196265	46.307942824607
C	6.686313	-1.52948721	-1.37862543	-0.013264793121	21.867288546482	22.291356455653
C	5.33929452	-1.21748126	-1.54546722	-45.076929239457	-6.305701011318	-4.282037624788
H	1.18119312	1.08551767	-0.78295957	-7.181663168151	11.445166490199	-14.335325430949
H	0.34857073	0.44428027	0.65224988	0.520704665901	4.935867233458	2.928045403004
H	0.24888414	-0.55606986	-0.78344738	23.869794507581	26.372432018077	7.090799481726
H	2.7951496	0.18693084	-1.63645598	35.023784889352	-10.601330822877	17.920060225571
H	4.69527922	0.61121755	1.32388648	5.718826612502	-1.436553298034	13.33137514246
H	7.22959877	-0.12496056	1.63069191	15.548214684204	13.346249293715	33.068340301591
H	8.96983131	-1.22872662	0.87339476	-15.790369706533	-22.506378982597	-48.157604572385
H	7.2611011	-2.14891995	-2.01419249	8.094028074314	-16.154244793975	-24.46640916616
H	4.64011266	-1.59634229	-2.38346591	35.605364339504	10.464930294443	21.964217962072
20
Properties=species:S:1:pos:R:3:forces:R:3 energy=-322970.9754366881
C	0.75974346	0.23888638	-0.23726947	7.590158956729	-77.46775277555	24.293666277842
C	2.14320499	-0.35496019	0.23428364	56.256290933882	-14.92732328189	-10.036301290054
O	2.23909895	-1.08538975	1.21179261	-10.652657085018	8.616522547307	-2.036334123156
N	3.3515723	-0.17316759	-0.62992888	-103.383851118566	39.223649791553	-1.673790488016
C	4.7091966	-0.46270869	-0.52806565	3.439685650419	17.162535096483	54.070850673195
C	5.49006115	0.03165302	0.54933963	-37.91106372196	-19.876368894501	-33.472992020802
C	6.81122022	-0.27670583	0.68153891	-21.338878619528	5.867687343748	22.308402629019
C	7.37406055	-1.17490715	-0.16904831	-30.529031895513	12.199181105926	-39.667296375592
O	8.60206162	-1.5931766	0.00864762	30.003700748678	-51.092998916022	-85.186775310229
C	6.64535538	-1.53510513	-1.35620865	22.810712516319	0.900393655677	40.333161766772
C	5.30691009	-1.22585894	-1.4722707	-4.910775478032	-25.925272806696	-66.450666542954
H	0.72298451	1.26276135	-0.55723809	-0.619930654497	10.424719126944	-14.51532477854
H	0.12304721	0.0527897	0.66872742	10.40896640879	14.797466488348	-10.554062835419
H	0.35302382	-0.61078542	-0.9090162	11.589306192808	39.490685233017	3.410996734671
H	3.11089442	0.56303446	-1.30031813	7.302531173009	-4.792863931891	-4.950318480035
H	4.89578461	0.46477473	1.29635421	-9.466567269265	27.839415346602	30.119941128611
H	7.31059089	0.06259311	1.55302912	17.924672546814	7.738144798119	21.101963945021
H	9.08139781	-1.48654286	0.78648087	16.604968370161	20.286745989922	64.224321253737
H	7.16043239	-2.1210078	-2.06585612	12.155686304257	-18.501090240131	-22.217587204879
H	4.6935299	-1.55739611	-2.39001206	22.726076040514	8.036524323036	30.898145040808
20
Properties=species:S:1:pos:R:3:forces:R:3 energy=-322975.78445177636
C	0.93227989	0.26708196	-0.18362077	0.4185639656	-29.973942522186	-33.707264327599
C	2.23448506	-0.51726176	-0.05054412	-32.18721040991	-14.876675813821	27.336514686207
O	2.14127126	-1.72806258	0.16857167	17.354190880921	-4.548016402803	-17.127345010148
N	3.38551661	0.20938907	0.08091943	0.241560388509	32.670358301101	-9.013942877636
C	4.69413454	-0.24976558	-0.17141781	7.369291866984	16.461059002582	24.770208587212
C	5.76382539	0.55575546	0.3125767	-115.923431236278	-2.28186369292	-25.296795400439
C	6.97961447	0.14492557	0.2162052	138.999387479957	-36.651028497441	6.388540802642
C	7.34724377	-1.17250612	-0.22129475	-59.684227992501	12.185104611713	-20.208012119397
O	8.54206938	-1.70345488	-0.10285608	26.571429812788	-42.553496819533	-43.651265485807
C	6.35797723	-1.94108302	-0.86891336	-10.866108900749	27.602316073631	5.270638757206
C	5.02770631	-1.43477676	-0.78393427	40.141876450018	-11.899164200594	3.023875182736
H	0.77156966	0.6793679	0.78267859	-7.553411851122	29.30325594189	20.824182239974
H	0.15469132	-0.54539471	-0.24512943	11.098222333894	19.22424137804	-8.923615814081
H	0.9239083	0.96297249	-1.06693749	-5.026759803053	-6.403730251124	21.707891128289
H	3.25391594	1.23209535	0.31203073	8.227054879367	-31.697804946338	-14.879650021082
H	5.56910046	1.53919611	0.6049279	-10.409499358339	38.809456334355	17.21363431451
H	7.75213721	0.87951558	0.53489788	0.731412829209	-17.110974456617	-2.576057054222
H	9.01961558	-1.3535679	0.60723417	33.450343763417	29.296719502308	47.158358405086
H	6.53430898	-2.87437911	-1.45885209	2.503824751703	14.802570267577	19.903447062485
H	4.34388122	-2.16419929	-1.05274768	-45.456509850416	-22.358383809821	-18.213343055937
20
Properties=species:S:1:pos:R:3:forces:R:3 energy=-322983.8658791355
C	0.87865247	0.3350783	0.023509	10.860419263464	-4.872765651224	-33.12466645797
C	2.13251886	-0.59067936	0.06191338	26.486057764364	36.285679557718	-36.400398464267
O	2.1345349	-1.78743557	-0.23752169	-5.884271023131	20.5259821061	21.310315546544
N	3.32165532	0.23490219	0.09663967	-1.25856962719	-66.203553235712	-3.382628932421
C	4.67804702	-0.19571023	-0.1265676	-20.497694360056	-43.53455973798	-9.31048450206
C	5.74555478	0.62529445	0.17107804	34.255016552923	-17.290178052459	-1.484027057745
C	7.11586609	0.17418448	0.13961221	-33.457347915094	40.148711034349	6.586082361352
C	7.40125672	-1.16013571	-0.19967598	14.383793222581	9.523221424685	0.819331194039
O	8.66053082	-1.74270916	-0.11102438	8.007235301801	-1.72189695353	-2.22416347746
C	6.33028887	-1.97609249	-0.67096619	-22.310211633445	0.862564491101	-6.099415162761
C	4.9825503	-1.53445092	-0.62908043	32.909207194824	36.009753233972	25.007116597217
H	0.6367753	0.90888305	0.90318029	-4.576777428162	-5.284613809651	21.946267896401
H	0.0635681	-0.3133745	-0.34163355	-1.388324867183	9.292426841224	8.095043370423
H	1.04213177	1.1692208	-0.73338232	-0.983765433061	-23.991679594671	8.15075815562
H	3.14862278	1.20777973	0.11967615	-1.915562692822	29.429243036421	4.656870017527
H	5.61081042	1.6344499	0.50952437	-7.103248222751	14.452594482835	3.940910458153
H	7.73779391	1.09413658	0.41700837	5.300848232345	-45.923225686031	-7.946454555485
H	9.41323525	-1.20782914	0.2675257	-33.469516203221	-0.411945749279	-9.42950197657
H	6.44359397	-2.98313404	-1.14549588	11.806303293648	16.834243034125	16.818616141125
H	4.20487606	-2.24283603	-0.82651597	-11.163591419833	-4.130000771991	-7.929571151664
20
Properties=species:S:1:pos:R:3:forces:R:3 energy=-322988.2593793207
C	0.94801756	0.30212477	0.13469644	-8.082908778083	-17.998915946033	-19.333594155295
C	2.17141334	-0.52159841	-0.13271741	-2.585757536325	9.153825082095	9.386165421691
O	2.08372538	-1.70560026	-0.3476701	2.390946319912	-44.168776539457	-18.636236359854
N	3.34742752	0.16226716	0.00902287	18.583088037372	11.952980072156	-7.464705021308
C	4.69254149	-0.22946432	-0.16001537	-10.572615195249	-9.789373230822	23.392251429438
C	5.74313684	0.63449891	0.22919057	-5.523729544488	-34.107545753966	-28.16428988221
C	7.03602688	0.1748481	0.07804784	6.135352575567	5.439421817238	10.521205227594
C	7.35183002	-1.15621983	-0.2660508	61.570184544637	45.24065917214	24.127573209238
O	8.61828145	-1.70203112	-0.15530138	-4.750734115294	-2.573878738972	-4.754476900323
C	6.38252843	-2.00102806	-0.50814723	-121.75598912477	-39.597600053367	-1.845016946855
C	4.99792692	-1.5409829	-0.43536076	77.572791142217	-9.148880006809	-18.320149139289
H	1.01110467	0.53926527	1.16434082	-7.861045219678	11.898627892479	35.241154910307
H	0.08007913	-0.37852294	-0.04113856	8.896480518854	18.333216594136	-0.321066392921
H	0.95903094	1.2282178	-0.43385926	-8.53113666054	5.20219662993	-6.589389593953
H	3.25598483	1.00525702	0.52893319	-3.504360362788	26.499517942456	4.989530593534
H	5.53100991	1.6022741	0.59511984	-2.314970955339	28.794179789754	8.688252702122
H	7.80552918	0.8333223	0.42433451	18.109512371703	9.805529479138	2.254130192238
H	9.26677572	-0.99884324	-0.18870011	14.242369414579	13.99575711745	1.374741507671
H	6.52885681	-3.07767805	-0.52092494	5.212571205922	-1.721684181584	-10.347533550398
H	4.28274252	-2.23889412	-0.71301237	-37.230048638209	-27.20925713796	-4.198547251425
20
Properties=species:S:1:pos:R:3:forces:R:3 energy=-322980.104326725
C	0.9558918	0.32863732	0.25815961	-5.240223853817	12.07970822272	-25.73802830938
C	2.20392985	-0.50672476	-0.23576305	-25.318256740706	9.379053866089	38.412334265762
O	2.068334	-1.71993324	-0.47877557	13.393933222781	30.679802795558	-5.606406887924
N	3.39334265	0.2099318	-0.04671372	0.633110161106	2.309380914351	7.408556645801
C	4.73677659	-0.32497718	-0.04041136	-39.489671336271	21.437836380899	-23.572394105791
C	5.73333116	0.62574554	0.16360143	33.74862303005	5.588766336479	16.962241606117
C	7.09892758	0.24266073	0.12864004	26.632201615952	5.823876746147	-5.940792296933
C	7.34646409	-1.09096324	-0.21991103	-13.725739555534	-51.905397730548	11.761624858589
O	8.6358056	-1.62302771	-0.2177461	23.794054362677	44.067897810366	-14.477318643851
C	6.26304307	-2.11814372	-0.38115965	40.682916736088	33.807559972784	-18.56836240032
C	4.94515442	-1.67131886	-0.42268103	2.080256591852	-11.28851149738	31.094612034014
H	0.9744827	0.44661625	1.33767565	13.780731626523	11.298464147706	10.625957931808
H	0.04595699	-0.24980501	0.17326875	-5.817531909812	-16.252116690183	-14.013514675108
H	0.6862425	1.31170775	-0.25941234	19.75148834605	-21.073477197471	13.539119509656
H	3.33391092	1.20039702	0.3253839	-5.620967181155	-36.049894188223	-15.724149609561
H	5.51432657	1.64851281	0.51266999	-5.310984843951	-6.994592618053	-7.627563603118
H	8.07169025	0.92747938	0.32885221	-58.648857491404	-28.39609816513	-8.618297851454
H	9.30544949	-0.84519451	-0.35071831	-36.190798453398	-40.528903815921	9.141761149026
H	6.55832198	-3.16595076	-0.65256659	-4.70898293758	21.829019883169	9.118487269984
H	4.03431153	-2.33599266	-0.45712857	25.574698610547	14.187624826641	-8.177866887317
20
Properties=species:S:1:pos:R:3:forces:R:3 energy=-322973.12771072285
C	0.83952919	0.12307803	0.43289922	9.258011530717	-35.548341966922	-19.05089412822
C	2.1784709	-0.38805583	-0.21934095	-37.027966913752	-48.677649890089	5.048389481273
O	2.20298313	-1.28858111	-1.08578957	-5.616992808885	33.79711690911	10.734207048182
N	3.2952535	0.04120519	0.39775437	73.070403183363	28.562963891281	22.710423443689
C	4.65704342	-0.39294245	0.03667486	3.515751392962	43.30180822013	-6.083409412619
C	5.75311861	0.5118133	-0.23749074	-31.000598735219	14.075620897353	17.340548614757
C	7.09474402	0.21554596	-0.34294912	-67.716205822303	-82.338370053454	2.190189071682
C	7.38399807	-1.1454516	-0.27177052	-26.806036428487	30.565946402219	1.249536615828
O	8.64015076	-1.55894822	-0.16895866	23.016624589433	-63.856174980321	9.161000865151
C	6.3171079	-2.03933267	-0.11792775	22.867720280716	-47.463856885202	-6.102426373833
C	4.96418912	-1.71708708	0.07776615	51.466017626587	4.161757754566	-4.81806523405
H	0.53581494	-0.59672224	1.29241466	2.633235516187	18.418249394019	-38.760779959052
H	0.1439721	0.21974379	-0.46091297	5.5378956235	-6.846985689886	32.152459392645
H	1.00578683	1.0701059	0.89947197	-0.579923985348	24.304638938284	6.766038111472
H	3.33009304	0.54619824	1.31050679	-17.870284863854	-4.276607378721	-24.767037474324
H	5.67825558	1.56473897	-0.13309274	-27.951278843968	29.159044909515	-2.570397801669
H	7.83585768	0.89999075	-0.3562987	52.936654278533	60.285479767625	-4.150166073937
H	9.35854543	-0.99815894	-0.44843304	2.397494082052	24.037094150515	-9.419940604195