20
Properties=species:S:1:pos:R:3:forces:R:3 energy=-322975.82767719583
C	0.83002991	-0.16847089	-0.56997096	44.955089284583	-28.240944633402	-5.65082450738
C	2.22177957	-0.07551506	0.15535743	-48.264828963914	-23.444349813235	17.432559743836
O	2.20139693	0.399395	1.27542234	24.86459379403	18.044073045314	13.044276990756
N	3.21541017	-0.87884577	-0.37976635	-20.186939257404	0.029993845698	-69.315028779494
C	4.60818653	-0.86103634	-0.28258918	32.131448209093	21.94650192014	5.147100685058
C	5.34398243	-0.9456029	0.89153603	-49.420451277395	5.103424086104	-35.677232838666
C	6.67941158	-1.05001587	0.9168603	76.042657080238	-29.055670104919	59.016585061879
C	7.44868922	-1.08055186	-0.22115525	-16.540177488195	-6.713553873339	-88.669367992482
O	8.7510523	-1.47528211	-0.3389437	17.005590943435	-1.119465823164	27.970486204723
C	6.73188662	-0.87494775	-1.53770151	26.072676932208	-2.098909850235	53.814231159878
C	5.36941239	-0.70190026	-1.4541416	11.257452351325	-18.406491229657	26.899512286033
H	0.77833243	-1.06430872	-1.22587925	-5.689798406016	5.084323894609	9.254865756421
H	0.66424135	0.67548784	-1.18363393	-3.862499600521	30.263132485968	-19.714384603568
H	0.11425948	-0.15788846	0.22677237	-15.111369876007	-5.819324352547	9.772039894539
H	2.96925447	-1.04559861	-1.40082485	6.347160578173	-0.400853241221	33.874622666822
H	4.82374906	-0.96956228	1.77135407	-32.281751521294	-4.102705738414	57.057973431394
H	7.12738244	-1.37883732	1.95423059	-10.167872909593	20.794797060117	-43.549059389223
H	9.15428875	-1.71214592	0.5494972	-16.86572395222	9.556877261711	-23.235747377806
H	7.15180967	-0.88689148	-2.56563615	9.474876576904	0.507432515335	22.095902729909
H	4.8699564	-0.56734843	-2.34696423	-29.76013249743	8.071712545137	-49.568511122629
20
Properties=species:S:1:pos:R:3:forces:R:3 energy=-322985.5662597581
C	0.91078561	-0.14224105	-0.57120529	-36.381795083928	-52.321957788443	20.487567643022
C	2.13749434	-0.22363925	0.23037216	29.38993870243	12.499960644792	-11.620635358978
O	2.21240864	0.37747804	1.293989	15.163732828817	-11.859341461527	10.497138888738
N	3.18109376	-0.82958137	-0.48643907	5.795133040739	4.175222834779	17.608175971262
C	4.58788082	-0.79055838	-0.27744155	-4.356028936731	-12.575398134519	1.770663643313
C	5.2475169	-0.9142801	0.95193009	71.212837577047	10.540666461413	-35.645224590429
C	6.70710802	-0.98421448	0.88048372	-23.6147239471	7.762985419643	10.912647920202
C	7.44527193	-1.12947224	-0.33454601	20.206841125731	-15.136265630007	75.275569722206
O	8.80849262	-1.5355155	-0.33189523	-24.450605902935	12.364699790595	20.954531185792
C	6.75955473	-0.87305892	-1.46120138	-4.856079118085	1.101553208474	-72.534042451778
C	5.36270872	-0.73288173	-1.43399166	13.245694215047	0.865068815632	-8.032966984707
H	0.75767862	-0.89164775	-1.34395356	4.849696062134	-4.629988483682	-8.301892312408
H	0.85583184	0.81269209	-0.96275463	-4.583763997394	52.561822804214	-25.136637267974
H	0.07509522	-0.25554276	0.12894749	-4.072951657952	2.518811516804	-0.177271925961
H	2.95600481	-1.04853333	-1.44957006	-5.387022365713	-1.868492393539	-1.304367888327
H	4.74728645	-0.80943205	1.87479455	-11.982489285314	1.49948658155	25.806297031818
H	7.30450538	-0.70114634	1.76465874	-7.622766300613	-16.674822514249	2.466606825706
H	9.05416847	-1.77196398	0.61450962	-10.886020416008	9.142605814709	-29.288486619491
H	7.34307758	-0.82431813	-2.42694169	-18.887251497944	-3.162522742137	17.627231669497
H	4.84432244	-0.61284281	-2.37223414	-2.782375042227	3.195905255501	-11.364905101504
20
Properties=species:S:1:pos:R:3:forces:R:3 energy=-322972.6520665477
C	0.90655289	-0.15097526	-0.57213233	-58.06371273582	41.274691432156	-7.544469541999
C	2.13830315	-0.26935082	0.26484107	3.04293611993	27.823035988389	-39.28334540289
O	2.23533706	0.35926072	1.30607568	14.048784750061	-14.73319706353	20.073328885845
N	3.15278858	-0.80376649	-0.52206855	41.060438917496	-1.332712745366	32.505193821276
C	4.59432062	-0.77177348	-0.29014349	-17.030871688467	-18.477612232095	24.749394529049
C	5.26006827	-0.8855593	0.98816456	15.925676234808	17.353259944143	-22.122831000927
C	6.72814414	-0.95136786	0.87075661	-57.006619375334	-6.993580288684	8.726792075421
C	7.46735357	-1.17260873	-0.31769123	-40.726951585852	22.307455204013	18.8673410573
O	8.7981354	-1.53763378	-0.33379337	-27.46502355396	19.180106197569	-26.489168931817
C	6.74517345	-0.87213696	-1.47070862	36.336141946444	-20.954486029	-7.67461855808
C	5.37953103	-0.74787913	-1.45151976	-44.461545044604	16.639445518492	-54.446920731194
H	0.79297242	-0.77248619	-1.45731611	4.651711420319	-10.780218970358	-3.527972702203
H	0.82781374	0.93775125	-0.97525806	10.462894729254	-32.505816687768	14.335355665029
H	-0.05027003	-0.22382483	0.01367704	18.403063552528	-4.695223125444	-3.377243770292
H	2.89132223	-1.09854987	-1.45356297	-1.791633972595	-1.539935675132	-1.772607265471
H	4.70569547	-0.77299365	2.02258372	28.19486833822	-4.372770452066	-50.579473337313
H	7.16071072	-0.68226134	1.79566525	28.112857125689	-8.006970053778	28.368634956516
H	8.87834117	-1.72511009	0.58644326	27.120785231045	-14.147759499001	40.288373109768
H	7.3976255	-0.84585315	-2.33659762	-10.613145283114	0.888953673543	-17.685712024549
H	4.79916828	-0.58230792	-2.47766617	29.799344873951	-6.926665136083	46.589949166531
20
Properties=species:S:1:pos:R:3:forces:R:3 energy=-322982.2137828081
C	0.80960956	-0.10795522	-0.61601017	30.242044314821	-37.162161844124	18.833672971661
C	2.11409196	-0.28123845	0.26949588	26.575058780005	7.808150704299	-21.673094669192
O	2.35906427	0.18513406	1.37672396	-22.710419466425	-4.400945050412	0.980755000448
N	3.18304406	-0.7143459	-0.53989978	13.221039468935	8.010330597382	34.324148037102
C	4.60424255	-0.75408818	-0.32736475	5.449245298795	15.144214959868	-1.399608212313
C	5.31580755	-0.69661653	0.87851515	17.854499937597	-9.720066891034	-0.237346495958
C	6.7153537	-0.88041019	0.95270024	-9.547635688916	-23.315757984284	-17.561229499316
C	7.35164708	-1.17967244	-0.25272853	69.715344173983	1.736420448328	17.288181022515
O	8.72034769	-1.53835765	-0.28816806	-45.340102683874	17.809317946718	-82.404259404469
C	6.7722176	-0.98086966	-1.49120237	-34.677092582452	4.16545633732	-27.01813882365
C	5.37359769	-0.76324746	-1.5030706	31.397094129186	-9.981600100152	17.275157436177
H	0.95486117	-0.59103177	-1.60320063	-3.729577174311	6.717207786487	7.829213074085
H	0.84035642	0.94862261	-0.69631219	-12.101386027397	31.685777984028	-10.666319038145
H	-0.12344904	-0.45628257	-0.16327833	2.346087047063	1.598793080327	5.529194885807
H	2.97120206	-1.2879515	-1.30730172	-17.458372184522	-16.904534324189	-34.379787478942
H	4.81490127	-0.58388774	1.78746006	-25.384323984784	5.351536974162	33.123126037111
H	7.33312235	-1.0705064	1.86192505	-21.343718659003	12.302640587462	-6.25830171944
H	9.19326033	-1.73634596	0.47733315	15.220974526582	-9.145449273148	67.13444862352
H	7.30684376	-0.98300738	-2.47951187	-4.532027166891	-4.181493542986	27.227356779435
H	4.90351098	-0.58814173	-2.43155975	-15.19673205839	2.482161603949	-27.947168526438
20
Properties=species:S:1:pos:R:3:forces:R:3 energy=-322982.0944564646
C	0.84090988	-0.09798731	-0.59739534	-18.226042710103	29.634606935187	26.237932671032
C	2.12608488	-0.22688242	0.23150974	47.047176554652	-3.481457594219	-8.076173199239
O	2.36849039	0.11092666	1.38473497	-29.926118345931	12.639122187039	8.972434761353
N	3.22061844	-0.70841236	-0.50262926	-19.398309716588	-35.413745499422	-64.708893106612
C	4.61981961	-0.74055266	-0.36298848	-8.749984704038	24.405726801483	46.562612053433
C	5.29748696	-0.64550512	0.82917339	-1.237707369821	-10.700333174442	83.11533141202
C	6.71375488	-0.91932804	0.94933191	-60.715185946227	15.160717496751	-14.539259349093
C	7.36554004	-1.13105134	-0.22991865	36.330612036909	-19.215597932813	-22.259404630181
O	8.6920545	-1.53875903	-0.29174644	24.121037095804	-4.408651757577	27.046271896363
C	6.72401483	-1.02550003	-1.49670975	30.288393263527	3.529540035108	37.812262584892
C	5.39576261	-0.7649249	-1.48216925	-37.379249230408	-5.693900065083	-103.619779506741
H	0.88576176	-0.56436901	-1.57204072	4.489817217064	-3.238004168003	-9.610164350942
H	0.54694251	1.01262237	-0.72075795	15.751295343799	-32.604055398027	3.446566542667
H	-0.01019841	-0.53692256	-0.04329598	5.325632790265	0.374343092402	-0.655385764599
H	3.03982996	-1.3074369	-1.35446045	-11.267981056647	27.628055703694	20.706460293555
H	4.62293421	-0.47838082	1.75461663	30.999478031813	-7.443540507691	-29.04975753752
H	7.23678143	-1.03766373	1.87841667	0.284323808587	4.108618899542	15.865303657462
H	9.15264465	-1.68288992	0.6108405	-32.754445381408	11.309088595827	-37.577998919484
H	7.34173707	-1.10480407	-2.36959694	2.737056107451	-1.139318967709	-13.719936960349
H	4.83608988	-0.64749471	-2.49826998	22.2802022113	-5.451214682048	34.051577451982
20
Properties=species:S:1:pos:R:3:forces:R:3 energy=-322976.82355375774
C	0.82420933	-0.00624113	-0.15762413	25.008019362184	-57.480797848237	-19.057785007977
C	2.2936619	-0.12972642	0.23149038	-34.084213690255	-12.24024247573	-4.536374797044
O	2.49058507	-0.4457176	1.38941057	26.034144205805	7.899630235037	21.444494603602
N	3.18999291	-0.17325899	-0.83270835	4.498741017203	-3.961812025769	4.479463281096
C	4.57276951	-0.55574884	-0.6383778	1.170636227945	-5.735030293934	17.124987877547
C	5.19170826	-0.47819012	0.64267829	-1.990191060346	11.608249682133	61.860333067543
C	6.54139868	-0.75189518	0.8800317	-13.115494841121	-26.980511912485	-91.074276244409
C	7.35983481	-1.23765022	-0.20857016	13.101056131418	28.191303164767	45.221773044352
O	8.7482104	-1.37721357	0.03132894	-30.872031619533	-12.201415441466	-51.892943353806
C	6.75703966	-1.40757403	-1.46218733	17.310155418358	-2.427419805832	17.226683957007
C	5.41128852	-1.11915966	-1.61390544	-43.503290418049	-4.532412458985	-58.472555329071
H	0.6811642	0.06028573	-1.21449315	-6.52149649097	5.011029635581	-26.173021803362
H	0.19814633	0.68295671	0.31361884	-14.72704008189	33.827348589016	27.768597228152
H	0.49195028	-1.03626811	0.14050579	-5.524808780261	15.907545802773	-5.514328338459
H	2.66943085	-0.17658952	-1.73744835	30.497316632409	-0.744843945679	13.524160048283
H	4.76888863	-0.27624845	1.70797791	-10.471981922305	2.427662951537	-57.708151459598
H	6.82794981	-0.72414199	1.88143763	23.647496712613	2.358393355172	37.691017352096
H	8.90099903	-1.26325118	0.96077731	1.651277681756	4.493976524972	28.508785379045
H	7.29623174	-1.7704905	-2.33073149	6.131301937705	-2.743625176638	0.935391873729
H	4.98043389	-1.40656687	-2.65826691	11.760403577334	17.322971443767	38.643748621273
20
Properties=species:S:1:pos:R:3:forces:R:3 energy=-322978.416804528
C	0.84734746	-0.01284134	-0.14765259	-5.754690653832	5.170853316939	5.640807913656
C	2.29534884	-0.14694489	0.22423065	-27.082084103103	-3.872733806114	-17.439973699578
O	2.48540056	-0.45230101	1.37667946	32.34764796572	-0.017063973351	38.337583911738
N	3.20360983	-0.17973704	-0.83291639	-22.066080998702	5.51470062463	-7.330373958058
C	4.56390474	-0.52667225	-0.62254958	24.76109236988	-24.848338510696	-15.499519370296
C	5.18129328	-0.46458878	0.63983335	20.200322795707	3.143410910911	37.928434797927
C	6.53649321	-0.7497233	0.85579726	-5.344842459528	-23.930908618247	-41.031979514361
C	7.34699798	-1.24110802	-0.19894108	26.953788836261	27.616899148686	39.12851509626
O	8.73694491	-1.37181304	0.03098894	-33.762477164722	-16.957197857057	-78.622288273629
C	6.76147946	-1.41684099	-1.45061038	-4.210896605598	5.233093856566	23.345083792173
C	5.41608168	-1.13110645	-1.61512321	-46.667293774961	4.897432270963	-37.838062811761
H	0.63471107	0.11896168	-1.16874344	-6.352986580292	4.536574049386	-42.193919510743
H	0.20888767	0.69694244	0.38766363	12.948217441043	6.763878432274	8.941406185086
H	0.49677754	-0.98216684	0.15130809	-15.411389445636	-18.435407837707	0.882018497858
H	2.68322736	-0.06644569	-1.75511031	39.903139527197	-6.672801008809	27.31476397518
H	4.80420309	-0.30229628	1.65876906	-28.563827761293	12.348245268403	-21.843875411147
H	6.8638914	-0.74829848	1.88538234	9.510432736194	3.483876569991	5.802910264654
H	8.93369576	-1.2650349	0.93381459	4.348365651291	7.9896798281	54.493815018914
H	7.28518834	-1.76306987	-2.30380859	18.18106533276	-11.355910456804	-15.777575397848
H	5.01182303	-1.44672906	-2.65195064	6.062496891616	19.391717791937	35.762228493975
20
Properties=species:S:1:pos:R:3:forces:R:3 energy=-322974.1163873576
C	0.8205357	0.17225694	-0.20786818	15.674849386966	41.887179115931	37.15585833273
C	2.20285104	-0.3378364	0.23276785	-70.061664535194	-26.474114626932	16.768716608457
O	2.13856605	-1.14789605	1.17076864	39.640926107856	12.562092430207	-6.691533471361
N	3.20355538	-0.09151701	-0.64417237	77.123423946618	-0.524340452762	0.417725458388
C	4.65693931	-0.44262508	-0.44422929	-16.16434615437	-7.712531170484	-27.586506712937
C	5.4249304	0.13267068	0.58165627	49.170773729908	-21.861412392927	-15.232817615806
C	6.81000537	-0.2216334	0.69369908	22.343578504126	-16.107979770323	-3.010195519392
C	7.39878738	-1.22532401	-0.21080354	14.161014429812	38.294488254739	33.650672377237
O	8.77997733	-1.67908659	-0.0357411	-60.383839378119	40.06415947153	48.67851395709
C	6.64925133	-1.5922073	-1.32041645	12.124081611244	-17.953643662505	-25.538314035793
C	5.29704608	-1.23307075	-1.47258636	19.588415031797	28.676357230015	75.591427919207
H	0.76268695	1.21113558	-0.52814653	5.84121570518	15.196483419736	3.099783675743
H	0.0656079	0.02476842	0.58532354	9.56618462083	-4.713049142923	-6.66022558317
H	0.59102083	-0.32330227	-1.08207507	-21.080099751152	-39.160567862006	-47.05459959755
H	3.14535594	0.65092336	-1.33804329	-15.191992539257	0.874445977671	3.179316224535
H	5.1213167	0.93948621	1.21426868	-18.024686843311	6.770126086632	10.49777220551
H	7.51294043	0.30734452	1.46599833	-32.151992799843	-22.200934996946	-28.44878037536
H	8.89114533	-1.35398722	0.94136068	8.66166901397	-21.227429274437	-50.010572318003
H	7.19029266	-2.17039832	-2.11960797	-15.733606001868	7.490282160065	15.795540005323
H	4.75448842	-1.57677425	-2.28966738	-25.103904085191	-13.879610794282	-34.601781534847
20
Properties=species:S:1:pos:R:3:forces:R:3 energy=-322979.88838234084
C	0.8448243	0.24259261	-0.31058699	-10.30095288853	-27.35454632892	34.513848000722
C	2.12359266	-0.51102367	0.15116534	15.501481833864	27.013247844081	23.477382932318
O	2.22383981	-1.24410943	1.15219317	-7.065900601925	15.262879936259	-39.459382003335
N	3.22222736	0.03402367	-0.5364363	36.904138843644	-2.979160684244	-30.039492583539
C	4.67311541	-0.35461023	-0.41772767	-63.81652298539	-23.79813647771	-47.827925856425
C	5.47059626	0.1611009	0.49616806	60.980265348479	6.425716721668	46.23027593809
C	6.8045433	-0.25328614	0.62314647	42.380609524951	38.183012903311	60.325677672122
C	7.43846538	-1.13497286	-0.20302939	-6.566054787812	-23.674027547596	-13.909040854993
O	8.68994071	-1.67533595	-0.11752063	-14.469155678273	-3.78938135539	-21.407570707946
C	6.62948535	-1.64201561	-1.18320959	-46.670911599789	-33.5866076079	-58.61233455821
C	5.27858482	-1.26516732	-1.28669349	10.011794133163	10.577208566823	12.894001687172
H	0.96621615	1.30736404	-0.34526485	11.272978983019	20.944474942606	8.282954383637
H	0.02766533	0.0231957	0.41730081	9.041565601584	-0.277081314899	-12.483525536303
H	0.53424007	0.01414946	-1.30808712	-7.725709740633	-17.107748977077	-20.568912995282
H	3.03968306	0.59786267	-1.41605202	0.261376775701	-20.723931214535	31.909612251857
H	5.10728264	0.80572127	1.2191618	-17.786569460885	34.803131279613	35.056192802782
H	7.47559723	0.12625626	1.47134427	-27.697308607885	-2.01754929777	-18.77798081113
H	9.13359643	-1.29327772	0.62070845	21.712421585585	15.880121885797	31.999572466995
H	6.9333458	-2.43355411	-1.90684429	5.974888056425	13.603065927804	12.838319650532
H	4.59926783	-1.60083626	-2.00975664	-11.942434335293	-27.384689201923	-34.441671879062
20
Properties=species:S:1:pos:R:3:forces:R:3 energy=-322970.6673373187
C	0.90142638	0.10389176	-0.22260821	14.846344933169	69.350927061506	-13.456687726859
C	2.26973958	-0.47167923	-0.08906415	-50.62699189001	-18.813132513261	60.826830059752
O	2.24273924	-1.52442387	0.55571079	35.908218762364	-21.041099157374	-8.67358849517
N	3.35955832	0.28218809	-0.33552534	24.601543977247	-8.52141228464	-18.3611779823
C	4.70198927	-0.22831028	-0.24506263	-11.725297997891	3.527958274361	13.485220031937
C	5.56701891	0.50497313	0.54721735	79.080820015937	-11.672719637164	39.746097339117
C	6.9306387	-0.03483972	0.63257266	4.95627551108	-2.935531965765	-0.98174668086
C	7.315569	-1.23564625	-0.09788827	7.307489310605	15.099291522541	-27.78122578914
O	8.64369037	-1.67924741	-0.40791587	-34.261676452749	22.753177083634	31.966417326081
C	6.3646622	-1.92915569	-0.89396521	-13.332887642732	5.747489145968	12.729334319093
C	5.07771931	-1.44152319	-0.90044794	-51.360892054641	33.723325191485	-15.199759093531
H	0.71085434	1.04364403	0.36829904	7.846619633685	-19.662634358185	1.691371525979
H	0.1566064	-0.60975973	-0.06752034	-25.092947101548	-31.731785784211	15.986494367881
H	0.74634166	0.46569238	-1.20485586	-6.904490213231	13.150593594919	-40.376609734566
H	3.27143409	1.0853253	-0.93017052	-7.202361085304	13.760568938168	-7.414122043348
H	5.44239851	1.39695516	1.29450067	-13.636200341342	-35.336055042959	-41.783523057263
H	7.65773779	0.54166554	1.31329884	-18.081481131654	-23.618220000048	-26.236149025266
H	9.19527924	-1.02757201	0.05330998	13.441441556123	-0.845433189563	1.135315806855
H	6.56019429	-2.81220553	-1.51618388	11.806669551641	6.208827238342	7.634058137753
H	4.20384625	-1.7728334	-1.54832337	32.429802659253	-9.144134117754	15.063450713857
20
Properties=species:S:1:pos:R:3:forces:R:3 energy=-322976.0263337264
C	0.8471115	0.31029957	-0.0932301	9.115782845295	-19.88026991688	21.026465021848
C	2.1600876	-0.52648159	-0.02087926	-6.965295698662	-22.398973087983	2.385349171253
O	2.16709696	-1.75882	-0.03242194	-10.444544553969	4.621135119205	-3.818789968085
N	3.35119144	0.16522318	0.15141135	-4.256233573915	56.052446925643	-21.62470543459
C	4.68286101	-0.320329	-0.06683532	26.484240359695	59.824518198195	-13.853300611607
C	5.78867507	0.64127308	0.11963038	-7.313586134045	-29.13417841744	36.274206135899
C	7.14344938	0.17592798	0.21926198	-84.397126145756	-56.232215987778	-37.768739873136
C	7.35180446	-1.1626579	-0.18380135	-17.76654599253	5.147054315749	-12.636065697257
O	8.64684415	-1.72616717	-0.1100016	-61.136037783737	-25.987414122623	-46.381828529524
C	6.28760685	-1.8933279	-0.77648065	44.307129179326	-4.830856753096	18.786970003075
C	4.96386416	-1.51131802	-0.73880514	-16.653679507417	7.203955635585	-1.32692178297
H	0.68017454	0.78341637	0.88417205	0.903669696896	3.945566664906	-0.104439245039
H	-0.0550098	-0.28639783	-0.30635138	12.267106515614	-8.618405113702	2.488613424895
H	0.87440177	1.05757742	-0.85011142	6.404242573716	23.375502158871	-17.862132884007
H	3.24637242	1.21494989	-0.00017252	7.058673646156	-36.166166856973	10.524711426509
H	5.53753657	1.67336944	0.42252974	2.4719135039	-8.359607760413	-1.097125170792
H	8.0128067	0.64216235	0.48648296	43.318386069534	52.966664126388	18.193412566364
H	8.98346628	-1.19736298	0.56373568	46.09200622567	33.573492489681	52.327024800162
H	6.68002654	-2.83436385	-1.08727113	-8.902336470946	-24.379874227452	-19.420215172023
H	4.09957711	-1.96233222	-1.2706634	19.412235245175	-10.722373389883	13.887511819024
20
Properties=species:S:1:pos:R:3:forces:R:3 energy=-322977.8634726151
C	0.83552231	-0.10854765	0.44947262	23.114276858086	10.378911782145	-75.044492490772
C	2.24464749	-0.32432038	-0.18592874	11.7840895922	50.454518961669	-27.91884455582
O	2.51786198	-0.48679056	-1.39716797	-44.707917302534	-21.98590082628	19.962572079738
N	3.34896492	-0.05246956	0.5661868	0.903008774068	-13.233840046991	40.911956600421
C	4.57474114	-0.59388876	0.09957395	45.675910954673	18.060478117007	11.102476366062
C	5.37961562	0.26285149	-0.69832281	-5.148014729939	-33.028949232793	14.729018875615
C	6.70128059	-0.0434911	-0.89735338	56.86907942117	-18.091017576372	-8.577039345235
C	7.31836047	-1.23193396	-0.33682516	-35.35163598417	22.54365744066	36.924106761172
O	8.65942304	-1.43734232	-0.21314897	11.276773760567	-8.666642213542	-10.867017125058
C	6.53136866	-2.08245098	0.50417662	-23.532174676091	22.896148949178	-28.219643405454
C	5.15960049	-1.72805336	0.71159456	24.201013516224	6.869249081321	-22.221755484186
H	0.73999816	0.55705442	1.26602686	12.026400239358	18.428122389695	29.093432507101
H	0.55001075	-1.09428195	0.75254316	-24.091254243966	-17.11748391521	-1.260824795986
H	0.29245288	0.40760183	-0.41490915	-0.891129624843	-29.277202122696	23.730865798439
H	3.37484468	0.34827941	1.52015687	-11.561660493824	-12.873776055606	-11.129303406322
H	4.96891314	1.15698397	-1.11065258	-9.244088517268	15.122120619001	-5.825470649681
H	7.376193	0.66319677	-1.4539773	-14.227287321248	-12.772739755163	8.407619697533
H	9.20615625	-0.74722837	-0.6235206	-5.922487977409	4.027902908344	-5.702782595188
H	6.97314071	-2.99295552	0.92281994	-1.763172814431	6.624853148486	2.668850232527
H	4.56466573	-2.33103012	1.36972598	-9.409729430621	-8.358411652849	9.236274935092
20
Properties=species:S:1:pos:R:3:forces:R:3 energy=-322983.38856008655
C	0.84790602	-0.17079893	0.45416164	2.530551289845	11.865366248332	-6.974701913306
C	2.15914899	-0.25976607	-0.31465623	38.752433579372	4.553469307236	-20.238075553416
O	2.33262506	-0.2952021	-1.54357968	-13.558327804166	-3.576878959544	31.57323654834
N	3.29884768	-0.21196963	0.57085679	-6.75460212606	-8.981022015432	-4.265518721522
C	4.66491268	-0.58489726	0.22385841	-34.031445505978	40.385621789763	-12.45551483734
C	5.39991205	0.22816817	-0.68727564	31.663844606672	-68.710096141294	27.228564684532
C	6.70906375	-0.13030214	-0.97990442	29.239809246533	-21.734769582605	-6.069972444605
C	7.36197391	-1.24494929	-0.29335751	-22.181006840533	39.350289150226	7.522820246017
O	8.70910666	-1.44378836	-0.24691778	33.725200072845	17.870716352668	-36.713282399454
C	6.6105586	-2.00033236	0.61028173	-28.877323189142	-4.763931182754	12.125901134175
C	5.22589112	-1.66742983	0.85304087	56.81655264828	-15.441743874445	-16.967612132017
H	1.22163901	0.02772065	1.44170914	-10.740348067324	-17.939126367841	30.461391812413
H	0.14576796	-1.04435607	0.31709835	17.852906762113	20.076889737823	5.644932724584
H	0.35399399	0.81012644	0.31094597	-4.610056788512	-9.941948810353	-19.78182217115
H	3.15043334	-0.21899125	1.5903681	-5.930701257358	-3.146693443345	-14.227625499199
H	5.05316989	1.01989455	-1.24276674	-35.257063203399	43.031613972759	-21.771337400569
H	7.22286387	0.41163121	-1.82712771	-4.5219457732	-10.308184156178	23.879924632546
H	9.22488242	-0.81902611	-0.86834619	-29.591690696503	-25.603259588173	24.47280205162
H	7.05622833	-2.84849543	1.18578042	-3.566679478594	16.401880452791	-12.667049721614
H	4.67442215	-2.32593128	1.49703383	-10.96010747489	-3.388192889634	9.222938959966
20
Properties=species:S:1:pos:R:3:forces:R:3 energy=-322985.74333234853
C	0.85523157	-0.17251188	0.45392421	-5.180720838903	38.061934609319	-21.808271640417
C	2.15880851	-0.26845618	-0.31441849	37.997082594858	9.184393131011	-23.195232344013
O	2.3277566	-0.28624248	-1.54412652	-12.431253343009	-6.035581409605	31.231965643651
N	3.30183419	-0.21879045	0.56658437	-18.77352782135	-6.978282432785	20.841518473918
C	4.64818192	-0.5873593	0.23121108	-12.528177536772	42.064369626474	-27.328383129157
C	5.39259796	0.22599344	-0.68985523	24.028505146767	-49.463772928686	15.24261829351
C	6.71223909	-0.12538476	-0.97262513	19.177338635894	-23.599826929523	-3.052971920811
C	7.36016736	-1.24447959	-0.30608183	-18.674416981495	30.553051779679	20.139628561444
O	8.71238032	-1.44826436	-0.25003144	11.959278559079	-3.36367905676	-15.220986594838
C	6.61934836	-2.00267395	0.61942551	-37.211702709458	18.227819255874	-3.656608386019
C	5.2315865	-1.66665295	0.84952687	54.429616210951	-12.779926586992	-13.69252307358
H	1.22089145	0.0020777	1.42901223	-7.584761229652	-12.507063494854	43.779817773286
H	0.13961774	-0.99277575	0.30947073	7.47251669874	0.172727470564	3.105466704408
H	0.32948525	0.81991609	0.28506174	8.849359007672	-22.635769994945	-13.090010574506
H	3.15835682	-0.1886485	1.61081648	-4.422844190998	-4.667728431586	-33.788149805629
H	5.05811062	1.04252252	-1.2724405	-26.246111660806	19.925389517605	-4.8499452839
H	7.22766272	0.42530922	-1.79566476	-1.610579353678	-6.803193252239	17.198764898191
H	9.22582961	-0.85961957	-0.84320481	-11.766559225705	-2.424778856906	1.679446099876
H	7.07111297	-2.79072365	1.22483003	3.094367649334	0.95788934797	-5.277807271641
H	4.6705159	-2.28820273	1.51520818	-10.577409611468	-7.887971363617	11.741663576226
20
Properties=species:S:1:pos:R:3:forces:R:3 energy=-322979.0117407324
C	0.90504086	-0.13808563	0.45029395	-30.998740431982	-61.721534605953	16.804283870387
C	2.19143607	-0.30939488	-0.32696827	-0.346582234369	28.143061503415	31.704673597267
O	2.28554762	-0.23152859	-1.53130041	1.382071198263	-14.843377474986	-21.475523634686
N	3.28663838	-0.27161616	0.55138896	-31.979492830583	-3.834319950148	3.650075522632
C	4.57741341	-0.57088424	0.22678773	97.609856307214	-14.190537946613	-44.119589628055
C	5.35166128	0.19066913	-0.71000541	23.300966656167	-51.135670598939	34.955644478584
C	6.73062673	-0.11908445	-0.91751249	-5.673101305325	15.664838631032	-28.375531139255
C	7.34132004	-1.22694995	-0.34824731	22.525223394492	-11.574499856618	58.083389100433
O	8.7242125	-1.49566257	-0.27090288	2.000218213502	22.540909798777	-34.836979477951
C	6.64043494	-1.97642305	0.66151376	6.346417297014	19.92550166696	-4.090061243027
C	5.29695849	-1.67188761	0.83369913	-34.082896708089	23.225203923268	20.665526118751
H	1.03611673	-0.23781753	1.56859267	-4.176262854859	15.412649418479	-22.524112299749
H	0.07999311	-0.92106607	0.22895036	35.0535709884	10.877273389855	-0.182875024055
H	0.38778402	0.70730574	0.07086067	-7.13571355455	35.876852530816	2.794768250508
H	3.09916943	-0.04213734	1.52065608	-4.749385733479	-6.625458599541	3.371505823346
H	4.95130058	1.00614028	-1.22083386	-18.679432718676	33.941132755567	-17.706734982741
H	7.3443436	0.56811703	-1.56396491	-13.80966270692	-14.312198592185	10.266866154437
H	9.27900371	-0.92690065	-0.89509412	-27.109458272265	-16.494830809779	18.883204059041
H	7.24222266	-2.50876185	1.45829752	-17.84303066321	1.365489744598	-28.261073639018
H	4.69899153	-2.08924222	1.65291324	8.365435959255	-12.240484928002	0.39254409315
20
Properties=species:S:1:pos:R:3:forces:R:3 energy=-322982.13138964924
C	0.82485868	-0.08404835	0.2363481	44.176657110348	-5.337047233746	25.039693341649
C	2.2931383	-0.17879276	-0.33566655	-2.04948733608	3.231739906181	-1.44751891421
O	2.58279126	0.19658433	-1.46753923	-14.425857842577	7.535114827826	-5.17535849071
N	3.25534749	-0.75572691	0.51996296	-29.368697647788	22.210966850231	-0.937261240564
C	4.67540827	-0.75205117	0.40956722	-35.242939436919	2.162809409484	-61.94315443587
C	5.20007426	-0.20131164	-0.79320812	-35.657113390524	27.97737239738	-5.991561166796
C	6.51042657	-0.29072059	-1.14283737	10.184744528255	-24.113776950406	43.848683609407
C	7.26236235	-1.10708634	-0.24258274	17.885778713096	45.016938693522	-86.095855555626
O	8.54078589	-1.38951557	-0.45735225	60.314995311555	-20.492808206441	8.635002427327
C	6.79608484	-1.70209543	0.83290888	-45.448390415884	-41.746834539202	99.873527845479
C	5.44493981	-1.53263924	1.20738524	6.923470989958	-7.001019999498	42.127855148935
H	0.82736893	-0.84379867	1.03117115	-15.975342810003	1.641409443406	3.072939869128
H	0.05650948	-0.27486168	-0.48117203	-7.321624373359	-10.57355170031	-20.722868889052
H	0.56189842	0.8969392	0.68046785	13.278829334716	-4.044963755616	-1.45737435151
H	2.82539795	-1.10299716	1.35885436	5.152989457564	-5.47968215624	16.372889764093
H	4.45397853	0.3282783	-1.41003835	14.598320672984	-3.704853687367	3.40370164558
H	6.96434993	0.26402798	-1.9443185	3.309245238767	0.84772993499	-12.47125393908
H	8.93226822	-1.03205712	-1.24798105	0.138193852296	13.532969725402	-21.09778315552
H	7.52186741	-2.27495691	1.45224351	-14.261393721877	6.66298599381	-8.106559715362
H	4.93232572	-1.83984371	2.16246113	23.787621765471	-8.325498953405	-16.927743797297
20
Properties=species:S:1:pos:R:3:forces:R:3 energy=-322974.82461965457
C	0.87244856	-0.08814265	0.20089287	-15.816005381776	9.557176761833	32.809705920804
C	2.22630196	-0.22774848	-0.34307124	68.830727269673	12.365933199068	14.548501020803
O	2.63870288	0.24904696	-1.39191897	-34.496380965974	7.184553956264	-26.89542072146
N	3.20868551	-0.71136967	0.56376844	12.270714852018	16.858569777473	-26.290243564004
C	4.64825036	-0.70832609	0.37266327	-39.395994608903	-28.242125489925	-27.087449235129
C	5.1326556	-0.28850098	-0.85816967	-4.258111696373	72.311384284569	-37.421985404513
C	6.49761436	-0.32681346	-1.16394978	10.814327467559	-22.614857146404	37.285806483191
C	7.29395831	-1.04879572	-0.27699096	-13.345216335061	-55.820933442328	68.974935587156
O	8.60238755	-1.37518058	-0.46012168	-2.61773313959	-5.495003517716	24.322662510605
C	6.78323565	-1.74077804	0.9275128	-7.048486445956	47.313869416457	-53.659932327508
C	5.45551645	-1.5173742	1.19759102	-17.0840098424	-14.579089053738	14.367399918729
H	0.71212025	-0.90817626	0.87965037	0.498096299852	-5.429394274226	30.721087845646
H	0.07749205	-0.33867553	-0.46821822	-11.627498131789	14.386422747782	-29.686291936877
H	0.7428979	0.9316469	0.71691715	0.711051226993	-32.178821464331	-16.787511332107
H	2.91336847	-1.18732507	1.36933822	-15.25345177362	-16.287237250191	34.086617471102
H	4.44626505	0.34611875	-1.54286288	29.079832169046	-32.919760152511	28.21717285778
H	7.00472952	0.18022355	-1.97106582	-6.895483017472	3.768934937944	-15.008096505567