16
Properties=species:S:1:pos:R:3:forces:R:3 energy=-311029.2011152728
C	1.64992843	-0.16513713	0.05081278	-45.856833179548076	6.648894729134142	-6.014755739755976
C	0.13512916	-0.29324244	0.13974638	15.190289007834668	74.2388695468973	-7.28464298360967
C	-0.67160424	0.99491125	0.07310927	90.4392453430938	-0.2027426812492067	-25.78967993956062
O	0.12055843	2.18630985	0.05256291	-90.0074417212684	-11.517842476863112	7.24007696038711
C	-2.04859298	0.94427728	-0.18307435	34.89187345072445	-20.06253345857959	29.893823650407892
C	-2.54936622	-0.35091377	-0.00716262	-38.97153745685523	-2.8237639633358658	-4.049685452174693
C	-1.84844253	-1.5482927	0.01763544	-11.628041799592726	-18.126915091193183	9.752016461576327
C	-0.45378638	-1.5313091	0.03369177	-51.81642857210325	37.681883382412614	1.0989886656724062
O	2.36276088	0.84663844	-0.0023252	-9.343944407776913	-12.885255415393308	2.277341043559423
O	2.15048697	-1.40071249	-0.10404652	35.98579681654654	1.9342324619038462	1.0849560795516136
H	1.04454985	2.08807892	-0.20022565	21.90783728264722	-25.899288571542087	2.637098990042703
H	-2.74223596	1.76117519	-0.31275182	4.329855694032094	11.29713385568692	0.576086833743234
H	-3.63317423	-0.39108493	0.11432927	-4.09048752708709	-5.498022999776464	-7.628222742670019
H	-2.39069888	-2.53055809	0.08431578	8.928826230192993	22.335521309446325	-3.1572909849136357
H	0.01422309	-2.43881173	-0.09813563	37.59464937465585	-42.188650768711256	-0.06052801443187879
H	3.1017159	-1.16812034	-0.21955904	2.4463414645039956	-14.931519858837335	-0.5755828278241809
16
Properties=species:S:1:pos:R:3:forces:R:3 energy=-311038.280990837
C	1.56767197	-0.15123693	-0.00974818	77.61763945620943	-14.714274028987823	3.60035644206436
C	0.16523028	-0.20829419	0.07465215	-22.038619844115942	-46.5229581763277	-5.848116599719128
C	-0.53661208	0.98135346	0.09978328	-82.9543543617103	10.22168575148034	-34.55653468800862
O	0.01984083	2.1777015	0.0243217	14.685476072752719	6.091500675730465	17.763506986674543
C	-1.97367748	0.93809513	-0.11993607	25.117149719279197	-37.17211335005864	11.750615192346395
C	-2.54195747	-0.33525786	-0.05009967	-12.875142875351978	-1.2926335487444036	-0.8667376300312287
C	-1.83387338	-1.57462185	0.13362262	-22.342311162262707	0.608671830024213	-26.69732916925925
C	-0.4761991	-1.53151948	-0.01840947	-1.3110590981559995	66.67113493805846	26.217924649386646
O	2.34713358	0.82559379	0.01888748	-29.476498800551557	2.7740226516326403	4.7942727787156585
O	2.13067771	-1.40810313	-0.09688196	8.12147213733156	-6.797934121016408	2.214064770411971
H	0.9489815	1.92548452	0.23642573	28.007718224349823	20.195388244430323	-8.066672613801684
H	-2.53155649	1.82840287	-0.41858781	2.0768597338814248	-1.3595802198835127	6.604556564994371
H	-3.61061489	-0.46353892	-0.25650453	-0.10446019940096496	6.355550809723467	4.418476549729614
H	-2.43663003	-2.51944132	0.07405499	15.481378533934611	17.264390701732427	4.229648766784856
H	0.20386616	-2.32413916	-0.12408661	11.888321252611705	-31.689658356322848	-0.3267722423714475
H	3.10694924	-1.35105517	0.03199035	-11.8935687888009	9.366806198529076	-5.231259757917109
16
Properties=species:S:1:pos:R:3:forces:R:3 energy=-311038.44674979505
C	1.64443453	-0.20859036	-0.06550887	7.265306995079099	-13.803411725854305	10.915436576460188
C	0.23518432	-0.24822361	-0.08699421	-20.573156111996365	27.237977839925268	-0.015156497759568448
C	-0.50025049	0.93419227	-0.034328	-28.327365316791273	48.49467018239531	16.418639106409476
O	-0.03123356	2.25241836	0.06745029	13.969619035255588	-35.27454292407414	-5.253303162978446
C	-1.91590092	0.80613308	0.00610808	23.588266059491907	75.4373016332475	-19.226505459390342
C	-2.59855858	-0.35483877	-0.10374092	-33.317691444563906	6.9912842379953695	6.480956943588186
C	-1.88616516	-1.49684927	0.11913256	43.02411595354802	-10.426792233673785	-12.207322971511486
C	-0.4946214	-1.39021728	0.06704139	-8.245024317689408	-89.7556698678646	5.94932441849846
O	2.25825978	0.84046233	0.07281969	29.066454612258976	4.287005147646705	-4.615630082187117
O	2.17863605	-1.46901008	-0.07851575	20.82792869672985	16.367335356111422	-1.5164832067805525
H	0.98025942	2.22979625	0.10605534	-24.006562545347084	-10.758410191194933	-2.4295778705142204
H	-2.45026464	1.77132462	-0.01676482	2.3349032136860908	-7.202667380381902	-1.1283252936628412
H	-3.66550994	-0.26235297	-0.32077224	-1.9513999789315462	-10.734585467453433	8.510193676863084
H	-2.25649448	-2.47574478	0.25275832	-20.253225229507787	-24.245860377639385	-0.8436492413721624
H	0.04346335	-2.38567429	0.12437485	-8.101509758589023	28.14564715624837	0.02240359524646947
H	3.13678301	-1.32036704	0.04581395	4.699340137366829	-4.759281385433315	-1.0610005309091304
16
Properties=species:S:1:pos:R:3:forces:R:3 energy=-311035.5933837248
C	1.71769329	-0.23777594	-0.04007462	-43.270804244478356	11.453760491592485	-4.230414422648356
C	0.20462706	-0.25471961	-0.18511367	-5.341635662555841	-3.472350343710485	47.83957161799531
C	-0.54277527	1.01289828	-0.05390552	-29.581094146587557	-43.552413030515226	-7.40338570867418
O	-0.03832913	2.24775852	0.07827074	18.816824766705857	-6.867221717180898	-14.486490409753909
C	-1.97545171	0.92371178	-0.01483187	-15.18632799432462	-36.13657420546938	0.24376838125082256
C	-2.66741543	-0.32242151	-0.08486043	52.54016546277976	-12.368452866495566	24.61360472317412
C	-1.89264708	-1.55022625	0.03060537	-13.751377409928592	55.995711453807374	1.8500594116137337
C	-0.5229736	-1.48273119	0.14813377	29.95738075726748	8.836733863545524	-33.16466722905199
O	2.28757909	0.85083193	0.09324702	16.744781624184913	-17.110998167159646	-6.2370871089618865
O	2.29670743	-1.48905982	-0.07077383	8.836994463506668	21.223181326466765	-1.1151064403267719
H	0.92898738	2.12250828	-0.10562549	4.219941065587234	4.492342614223591	10.754390184879163
H	-2.59485677	1.78298836	0.22413409	6.231371681289516	11.1646792069718	-6.233279401353241
H	-3.73373035	-0.47380446	0.12612751	1.507875414990491	15.15065151724787	-10.81690618869612
H	-2.46516385	-2.42122702	0.21091105	-7.301538366140195	-28.20630361514345	3.6974907615006467
H	0.08480046	-2.38744814	0.38753002	-10.05336404147914	14.366195508552561	-7.838986355251804
H	3.28434142	-1.40001071	-0.05796424	-14.369193370817642	5.031057963266501	2.527438184304528
16
Properties=species:S:1:pos:R:3:forces:R:3 energy=-311028.9178506825
C	1.73901208	-0.24281998	-0.02418338	-55.26805763339481	17.76767539736606	-6.351109910478773
C	0.12858976	-0.26535734	-0.17014483	47.754218015997886	1.9246759243584906	44.128190381720884
C	-0.63349508	1.03456951	-0.0678183	48.60142146179693	-67.18627748929451	-13.125645856289085
O	-0.0231983	2.21357639	0.06468213	18.244332926184505	19.65283327674733	-8.864603580835102
C	-2.01466482	0.9593362	-0.03305677	-17.449737581992128	6.836655642940223	15.578775887548227
C	-2.65302929	-0.30871254	-0.03457983	14.059005131256393	-15.055881382441921	13.451787220927685
C	-1.92794788	-1.55529781	-0.01016986	9.139779487131502	21.748527140672337	23.166659677293996
C	-0.4893284	-1.51307777	0.13558193	-35.7405953960726	6.638817073344798	-24.4411047292006
O	2.32586593	0.83501879	0.09531479	6.965918096973964	-13.474819141635221	-4.323500890604827
O	2.36189089	-1.47056562	-0.06840244	-19.997158984471188	14.833449361219497	-1.6711780619790193
H	0.98305489	2.16219058	-0.02645216	-22.97362576278151	-16.14871497529778	5.853772915324425
H	-2.4769246	1.9568363	0.2230227	-3.5754162605342104	-27.432570316526572	-11.279529673676251
H	-3.72325782	-0.41070858	0.21921108	6.211140668803553	8.324300065400823	-13.156189705805302
H	-2.54773855	-2.46955484	0.14942967	16.689296965089756	11.743108398570675	-2.3808070353356006
H	0.10506833	-2.40946517	0.48802759	-13.514646911792827	22.334569756019764	-19.35108981150094
H	3.33020105	-1.34345043	-0.0713677	0.854125777804828	7.493651268556068	2.7655731728901563
16
Properties=species:S:1:pos:R:3:forces:R:3 energy=-311040.19030436396
C	1.64657596	-0.21690019	0.00515873	17.150471036436898	-12.860867855668236	4.566966408267789
C	0.16297996	-0.26302	0.03145386	-11.459465106111063	-6.64697382210746	-22.69173915119122
C	-0.61420889	0.94591516	-0.09578413	7.306020538206575	-12.09287378020028	32.68417955058238
O	0.00730643	2.10767778	-0.00682968	1.961341383201884	31.26345471497164	-3.7582129733337895
C	-2.03804983	0.95193949	-0.03947883	14.286873162422314	-34.92118485276848	-1.3625979243254158
C	-2.66264954	-0.26178659	0.09448465	3.714175369095985	-48.733077624786134	-25.397831273238047
C	-1.91689048	-1.49574926	0.00347701	-47.97609391394783	31.525322453587762	10.302076567719045
C	-0.57433125	-1.48338076	-0.02217696	44.74788298719053	5.632185333123056	4.335987200085029
O	2.38386322	0.77553054	0.08650596	-29.664641948562394	43.52066158343322	3.770912449421993
O	2.40903169	-1.3609667	-0.0695682	-39.90270419727784	-15.296628697011371	-0.29122236034768556
H	0.94863622	1.91933791	0.21111618	15.225658575455718	1.7229400379838025	-7.074964194636468
H	-2.68525485	1.78701413	-0.10458165	-0.10232759608210479	32.75681692970739	0.13251764181308187
H	-3.75150222	-0.41421653	0.05354529	4.30402765282042	13.335658514501546	6.456350221480562
H	-2.48457305	-2.40786274	-0.02675608	-2.9068640095952203	-12.742329456372055	0.9629865173594674
H	-0.04112581	-2.41925256	-0.04575484	8.974465746322064	-8.49184600647069	-1.0437586656194389
H	3.26741328	-0.908423	0.0249322	14.34118032042434	-7.9712574719238924	-1.591650014037203
16
Properties=species:S:1:pos:R:3:forces:R:3 energy=-311025.9552746273
C	1.67011339	-0.14449086	0.05890404	-31.194976392013494	-24.794786198596388	-14.206850546171319
C	0.18665108	-0.34519054	0.04365277	12.138933124896752	44.12750004085514	1.7077373088204313
C	-0.50478052	0.91626671	0.13189083	46.50598199797801	12.431851461433174	-53.36497831380632
O	0.09338731	2.12505311	-0.12456695	-0.4171010322144318	-16.179227594993183	17.420174156323746
C	-1.86247097	0.88727803	-0.00698784	-64.18125598529433	30.159268129886488	20.507357779082056
C	-2.6194528	-0.23590156	0.06925684	11.029083220328237	-84.72855629172224	-9.77138199929528
C	-1.94001935	-1.57679339	0.00781961	-56.96428510373128	45.47172852212214	2.599207631573084
C	-0.59382861	-1.52570641	-0.15682083	37.00174583005199	-3.240900567001216	35.73559484850767
O	2.18458789	1.01621181	0.10095999	25.8529356152676	-76.98370969602922	-2.9657671227880917
O	2.25106389	-1.44193858	-0.0587998	15.312754842928936	50.05322500648014	2.4847048559946012
H	1.12489598	1.92512565	-0.17539433	-31.006993798641872	2.620596922201413	9.870672541157862
H	-2.47204482	1.80087258	-0.04058367	14.858957122648835	5.06226347006045	-2.4447037940884258
H	-3.71272517	-0.17399583	0.03143709	4.032003128321791	-1.108876211170347	2.8836951752500997
H	-2.50122298	-2.55063924	0.10672804	12.250062949297849	25.529079738359158	-7.982774453857161
H	-0.06615744	-2.45679882	-0.13044096	12.379433675621756	-14.842454685941128	-7.3655427571162395
H	3.21959515	-1.39714041	-0.24338207	-7.59727919544607	6.422997954055417	4.892854690413416
16
Properties=species:S:1:pos:R:3:forces:R:3 energy=-311038.3774851098
C	1.55243901	-0.23603093	0.00027986	15.20140329521377	38.88243012737096	5.953319640920045
C	0.09505921	-0.30465942	-0.02888311	83.27623805103443	74.00355108553033	0.019512981116325653
C	-0.55360469	0.96511067	-0.07416146	7.222220894895204	20.081735495804445	26.33575483430342
O	0.0753735	2.19804369	-0.09211566	-1.4167877564611626	-43.23610342836353	-3.257449893206609
C	-1.92168835	0.91785014	0.15714539	-30.05202740455186	43.9168321914248	-10.058354940574446
C	-2.58050431	-0.26206526	0.0129144	25.27906985483945	-80.30169483659841	1.7924903217043748
C	-1.83189952	-1.53877103	-0.08685442	-45.26716773769991	30.25311967569408	6.428524860962405
C	-0.47060592	-1.5167195	0.06452585	-22.026550449507024	-74.9679339370525	-25.84548147379956
O	2.24210565	0.80721148	0.09400769	-15.910032699852636	10.217786284024449	-5.7222745403466035
O	2.2294726	-1.36174413	-0.04099462	23.465060693638073	-37.38480696872793	-1.4931026325446033
H	1.06115671	1.94005409	-0.06348296	-4.872074440847312	5.450998555337011	1.2572341677110808
H	-2.53650663	1.84182545	0.3352667	18.795257741520015	-14.16731535236299	-5.806827963994649
H	-3.65044836	-0.32719772	0.0789167	-13.623915501055466	1.7663787427329198	-1.2439651649647285
H	-2.33804183	-2.47991372	-0.28101284	-7.964378032263793	-0.5884625178250952	5.77886401957725
H	0.15881212	-2.47560879	0.00847051	-21.003852174647967	34.04802087852218	6.196021707182566
H	3.17329072	-1.05265824	0.00718778	-11.102464334253515	-7.974535995510963	-0.33426592404624006
16
Properties=species:S:1:pos:R:3:forces:R:3 energy=-311037.3878509644
C	1.76130148	-0.24578377	-0.02674694	-18.961765022875404	76.53422397860635	13.008179166450159
C	0.19090321	-0.19284285	-0.04412927	17.164984451817322	-2.5767218855429475	4.020893819104277
C	-0.63400485	0.96931333	0.01562222	2.144945636033593	38.914984148616796	-8.59541565395503
O	0.00260744	2.21134756	-0.05125671	-35.041758453876675	-30.917820057678007	8.614623230464357
C	-2.07507565	0.89525481	0.09241944	38.45581558104478	1.7808299679917796	-16.276522277456458
C	-2.67398984	-0.35554479	0.01269013	-15.115677195300105	-4.761603981186839	0.4427536026845182
C	-1.9390636	-1.53185101	-0.06146515	41.11569226054501	22.147857070001404	18.247378104972583
C	-0.52265521	-1.36512147	-0.00965777	-21.218462609058992	-75.32794287763987	1.1000618940721785
O	2.4347123	0.84158179	0.04854976	-34.43358367430918	-66.59923820757155	-4.699622276851857
O	2.27915012	-1.49028467	-0.01764894	-13.919116932706158	2.888454849154143	-1.4361996713556615
H	0.91535885	1.90675931	0.09059915	29.87061240364618	13.775430914711647	-3.2868195231054607
H	-2.65908036	1.81678407	0.04499262	3.922311780078313	-0.44475362159272314	5.067299230235239
H	-3.75284205	-0.50051664	0.04433945	-5.428677835858238	11.964567348241209	-0.06970079105079797
H	-2.44376005	-2.48618674	0.09175665	7.278171738493441	-2.346343202516793	-7.244350192388358
H	0.05155455	-2.29579133	0.12531858	-1.1541921488302134	4.874013053646536	-6.762227542540639
H	3.23231366	-1.48296228	0.18001449	5.320700021156099	10.094062502758788	-2.1303311192790715
16
Properties=species:S:1:pos:R:3:forces:R:3 energy=-311031.8921816197
C	1.64169728	-0.15308252	0.01781943	103.82530765826813	-16.453997947907556	-6.349179965190989
C	0.22788334	-0.27516086	0.01082898	-42.78015734274538	15.353014870624044	-4.560720770750313
C	-0.5552633	0.91461246	0.03771892	10.442923769060243	33.218668194232706	-14.061310324425843
O	-0.13260629	2.25871293	0.04076521	25.391971259821595	-37.382494494331816	2.1789807940928516
C	-1.93356692	0.88303165	-0.0966475	-3.985519047251824	8.754833914026468	23.618528920104175
C	-2.63609785	-0.29089926	0.04469982	16.0491724819827	-10.319518375386952	-4.451973796711184
C	-1.92413632	-1.51962966	0.0961491	37.37435821266758	40.072364004907904	-30.28130802022499
C	-0.4976426	-1.51814751	-0.12086699	-39.3831723851587	-5.312885532820331	20.616503126639586
O	2.48666519	0.79338057	-0.00715442	-66.53377686093502	-15.526916678365263	-0.3266182944394861
O	2.20183469	-1.43608362	0.02745782	-14.366562943848363	-0.1246695937608101	-5.381059395868424
H	0.85950909	2.29633546	-0.02390545	-8.47030992211524	-6.705731910909768	3.00403738405634
H	-2.31030403	1.89866535	-0.08852656	-19.4736234593979	0.2431259215416411	-6.019809382772506
H	-3.71547245	-0.30078034	-0.01810251	-8.062189287809295	-0.007079992164628459	3.9208586382198276
H	-2.56986299	-2.34942019	-0.03857722	-0.9295873828681007	-32.876054045232564	2.426704351240031
H	-0.0475895	-2.5072791	-0.36480722	4.340264010048366	21.655508181345116	9.830224922540308
H	3.1087332	-1.34525605	-0.31224983	6.560901240281116	5.411833484201693	5.836141813490717
16
Properties=species:S:1:pos:R:3:forces:R:3 energy=-311038.34610632656
C	1.61724298	-0.2373566	0.05062647	-16.13222365290484	4.321369908646456	-24.022373886945513
C	0.17812811	-0.25809081	0.02933164	-2.2010554877585276	45.93567766149566	-7.863060839303043
C	-0.5458057	0.98555367	-0.05834663	16.068325051990602	-45.82439134454407	12.041160512812137
O	-0.09275349	2.19110157	0.14065778	52.97419306003436	53.90677996142418	-9.34559473797534
C	-1.90499737	0.90552902	-0.16030729	-27.946407513319805	9.587569590248538	8.961323424075331
C	-2.51319378	-0.28363366	0.05063369	-61.73247727680345	-37.49913475975096	-4.228370006406608
C	-1.83864989	-1.50273987	0.04404385	-49.187504448973726	-36.694017123012785	1.3566707384608994
C	-0.50874532	-1.45156566	-0.05047766	29.52690487584442	14.428260538889795	4.956804897747504
O	2.30397129	0.75686108	-0.07168193	19.338444773222783	51.05784108707887	7.671804103941534
O	2.20007154	-1.42149291	0.00886455	21.703768574370116	-41.34991418872291	10.231426378102096
H	0.89930132	2.24984483	-0.00886084	-15.146547866183278	-12.390830433126684	7.204649573921751
H	-2.53132796	1.78037979	-0.19375767	1.1263653477564037	14.394328948186617	-0.8366951202648669
H	-3.61795855	-0.30007055	0.17117656	11.923202818353023	0.9645082563852017	-4.411834332563788
H	-2.31579484	-2.52463264	0.07693644	1.1315174082561243	28.85005779902631	0.4019928905963179
H	0.10732084	-2.28047447	-0.15100606	20.609264823929728	-44.9640662583669	-0.44862728027487786
H	3.15908277	-1.20532452	-0.00357493	-2.055770487813857	-4.724039643857213	-1.6692763159236161
16
Properties=species:S:1:pos:R:3:forces:R:3 energy=-311039.7421718883
C	1.61769968	-0.20653135	-0.01046821	-0.2030151950694268	-26.80505704561182	-0.11450293864056942
C	0.15740278	-0.1844869	0.00840855	35.72831655349826	-83.2166984860512	-7.4856941060918345
C	-0.55809794	0.9898872	-0.06156691	-30.772875284554196	49.56562973834129	17.636728103422577
O	0.0266209	2.22965248	0.16450609	-2.7553700949262883	-30.778513686058318	-15.940819209101996
C	-1.98007043	0.93552756	-0.14367533	18.251835521940233	-31.913070271017446	7.1015383801352066
C	-2.60117933	-0.34481694	0.0193088	-2.840589188866036	39.668483480112144	-13.513574322379391
C	-1.85199721	-1.53924736	0.00688787	-5.326763085241521	-18.30310110216599	23.118458275464462
C	-0.43462004	-1.48420272	0.00354463	-74.01335792301481	47.19441020611662	0.3091732331031956
O	2.2370661	0.84108547	-0.08250154	32.39766224163288	2.40269280560811	4.975427759205828
O	2.25047591	-1.53005546	0.01672022	-34.16844746540744	55.55111277251945	0.9002391389995759
H	1.00568159	2.01419839	0.18343627	-4.868333901738057	6.248393437679691	-3.165307876035971
H	-2.48777704	1.89039528	-0.27324739	-7.613085264228896	-3.3340301077717807	6.5602212224914895
H	-3.7075993	-0.31341043	0.16493571	16.862918088721255	-9.100327864810533	-7.1449271283686695
H	-2.42960729	-2.50136756	0.21044405	21.83294313885722	24.075334204103534	-11.013948970874251
H	0.10933053	-2.37461295	0.10970506	23.99614876768037	-23.606760018724568	-0.8010229800289347
H	3.18442864	-1.3215774	0.15394037	13.49201309071658	2.3515019377307294	-1.4219885813007724
16
Properties=species:S:1:pos:R:3:forces:R:3 energy=-311041.65382425353
C	1.60652973	-0.14745272	0.0049816	32.32413388247382	-45.30033259018177	-5.316592951116904
C	0.14256349	-0.29423384	-0.04442637	11.397881723018276	29.56534017507185	9.965001368696209
C	-0.58480856	0.94989132	0.04965926	32.945004160146176	25.752334078756306	-24.178407518223537
O	0.04014158	2.1931533	-0.03582089	-9.075974961617687	-17.574889968320285	3.784538792276647
C	-1.97963129	0.97767859	0.06494783	-12.203127441735859	-60.65833258315377	6.373882135435924
C	-2.59329472	-0.28826724	-0.05744347	10.299573061807676	-23.47907830354692	24.57690347217221
C	-1.86409878	-1.55157522	-0.00949002	-36.97091487080697	23.88142418453955	-15.195572505124575
C	-0.47976865	-1.57356037	-0.02855413	-14.558292921564755	31.3828040489837	1.5092639062110755
O	2.3520128	0.82838035	-0.00622356	-17.22006476328522	18.781069514476332	-1.890145783052234
O	2.20951249	-1.40568394	0.0455853	0.14208832062733567	-1.5241670598735255	1.8662037505663223
H	1.01870368	2.13475733	-0.23575087	-11.74709839956042	-15.984608514919437	11.198576414860314
H	-2.61153321	1.78685544	0.3700525	0.7323157748141158	22.22478487194841	-8.647050480016222
H	-3.69585076	-0.38983737	0.00802007	12.036657317630668	6.472979782012632	-3.4479167953627807
H	-2.53288407	-2.43234741	-0.00751812	16.452854262751398	2.170239696905512	-0.502522922220595
H	0.12370828	-2.46925912	-0.02766671	1.737185328390749	-4.876664183455109	0.980835415017074
H	3.1945568	-1.31377115	0.07933697	-16.292220473089188	9.167096850756566	-1.0769963001190113
16
Properties=species:S:1:pos:R:3:forces:R:3 energy=-311030.3347499814
C	1.70771017	-0.15292851	-0.08574619	-0.14411072670154465	30.1053714565052	29.82814430679143
C	0.26780296	-0.27110982	-0.16607426	-70.37743569924734	21.261276172584985	17.312414472829314
C	-0.57900787	0.90175198	-0.069363	89.18480049628033	-11.325953302703107	5.402212414397862
O	-0.02516413	2.09844505	0.01098297	22.64894298476585	34.810500394840304	-5.580371969795956
C	-1.89955047	0.90397525	0.09151651	-113.97147958932781	-16.93391793036188	-16.6376133116471
C	-2.64719797	-0.31610844	0.05931486	36.65870601433442	33.27196040536808	-10.954026994216928
C	-1.86855155	-1.49656545	-0.02425531	-58.93622365379869	4.177901175472303	8.28397372271715
C	-0.51107806	-1.45960095	0.01157569	50.38513353441886	-17.94901221128776	-33.00343513331066
O	2.36232375	0.95925265	0.04139179	-29.4743689185814	-84.61993265237528	-15.082855407494286
O	2.09941336	-1.46319996	0.07815285	55.221393963791265	19.92765161139472	0.2181067539626348
H	0.9575447	1.95407833	0.02786754	6.75101723832613	4.378310209993357	-2.2990215609889164
H	-2.36989348	1.91510768	-0.02633495	2.6847641151076487	-20.778163622704486	12.92814034374836
H	-3.73984425	-0.27770058	-0.01769699	5.10665732835227	-5.4969246425288585	4.456633517505577
H	-2.43677709	-2.4319912	-0.13340588	11.23069001053641	-0.10749722233059081	6.246245754229717
H	-0.00280289	-2.42866903	-0.06505277	0.9483153363302536	5.0568524611094405	4.165480339567714
H	3.0561196	-1.51560315	0.3242133	-7.916802434586454	4.2215776970236005	-5.284027248296037
16
Properties=species:S:1:pos:R:3:forces:R:3 energy=-311024.8150198365
C	1.6932583	-0.16363553	-0.03509593	-52.26454938612911	-76.4801216964992	-1.1202601881309413
C	0.26170405	-0.23588498	-0.16785408	-17.206207129447108	1.4191428041655065	-3.3518025295953127
C	-0.50279295	0.88905931	-0.11797862	-76.2134164361423	76.0996988970507	28.445066031955268
O	0.02734398	2.14766599	0.02274138	-21.456717536925577	-8.594026927166095	-6.28058284970419
C	-1.98389777	0.82080483	0.05719527	44.380718424072	95.46236178883912	-20.396519306827333
C	-2.64242249	-0.3344913	0.10672254	-21.25030854274199	-12.993077777763373	-11.389444625050874
C	-1.92631558	-1.46295378	-0.0112833	82.46025679969146	-37.76954900317652	-2.8602453170999307
C	-0.49373717	-1.36622557	-0.10363953	-55.55488389770817	-113.28012247759115	21.517858583272258
O	2.30731046	0.83515254	0.02985879	69.37076511962557	89.25433424225572	8.32254334891391
O	2.1594198	-1.40530874	0.0907133	40.35433590882743	-34.220775176640764	7.79974057127099
H	0.97542746	2.01939774	0.21362469	15.17315752954657	-0.19876757051854227	-6.846860698738196
H	-2.58911795	1.77982031	0.03754224	25.464192578107685	-18.257997505179063	5.101425676508454
H	-3.68219624	-0.50582757	0.15267221	-35.6448761121834	15.95521618010647	6.683198748143317
H	-2.41297486	-2.42581762	0.0748846	4.139057930639603	-8.727182711207867	-1.0120764333015497
H	-0.08663848	-2.38575609	0.13059733	10.800964681004093	22.82065074882583	-17.029015924342545
H	3.11367953	-1.44091934	0.35667798	-12.55248993023655	9.510216184499573	-7.583025087273392
16
Properties=species:S:1:pos:R:3:forces:R:3 energy=-311044.8992876248
C	1.63586307	-0.23087916	-0.0003541	17.188758930516517	54.91915057990028	-11.65679811595866
C	0.20252291	-0.21136396	-0.17038767	-22.091378548636584	-29.500136611448188	0.1276324843990316
C	-0.52718514	0.97408966	-0.10762258	-40.38217426707162	-3.279220664312019	12.492223798864885
O	0.05095986	2.173334	0.02508806	-11.840784901148456	14.262915328074147	0.2964623246675957
C	-1.99205592	0.85144131	0.00919795	28.195357730393177	17.200845751445897	2.7011602880367747
C	-2.67911324	-0.34938082	0.11722628	27.02619874602176	11.978974573746266	-9.771138158658857
C	-1.88399632	-1.49736319	-0.00175876	-17.784063804121715	-20.378594444016386	5.83771301293304
C	-0.5403265	-1.43380802	-0.1526775	62.22216165150681	3.3604754492754685	16.317409010334224
O	2.32611547	0.81812775	0.02859356	-10.877856776238168	-7.791524028824028	6.696464145259734
O	2.2287889	-1.40530977	0.10221546	4.852727415381251	-36.01561980836647	5.119799669053762
H	1.03139948	2.05382382	0.15423908	0.7819346534253904	-10.194074227435673	-8.142182829263039
H	-2.53282025	1.76451447	0.17555476	-4.35901408616455	15.286170718161392	-1.4960904690637808
H	-3.75106176	-0.37687617	0.33367977	3.948299955732272	-0.1922345838215355	-2.6808022787334944
H	-2.26314035	-2.48238313	0.17926745	-15.593024888250435	-13.951828676421577	-0.9704974195405314
H	0.15335431	-2.28653533	0.02787285	-22.654891135016438	0.5653511805131625	-12.185942763547148
H	3.17106415	-1.2452677	0.30606327	1.3677493236707639	3.7293494635291387	-2.6854126987835083
16
Properties=species:S:1:pos:R:3:forces:R:3 energy=-311032.45281637425
C	1.69320312	-0.17538753	0.0351632	-40.58451531754792	13.570194032736783	-17.107159955664084
C	0.19611238	-0.3139031	-0.04783888	5.029071496558335	57.810652202733294	4.009505296749495
C	-0.52718492	0.93923614	-0.06289005	-53.6461723551712	-55.80143572236424	14.351784184357971
O	0.07105215	2.07103877	-0.03987411	26.951700607369844	47.274606568985256	-12.317684405758225
C	-1.95143604	0.88333203	0.09576794	-20.925971232024033	36.918908879054776	23.470012993345062
C	-2.66130546	-0.2831509	0.01999127	31.539564456905467	-30.287335945835917	3.4508008251399525
C	-1.97843074	-1.50780225	-0.15314963	26.586010069003144	14.093709751614286	22.503629187122822
C	-0.58634561	-1.45246782	0.022448	17.214863268639114	-86.3402445652678	-32.60174644179272
O	2.3090578	0.92025903	-0.00011903	-10.257948233819457	-28.676159442953963	3.250369959568975
O	2.2689509	-1.36631639	0.04198436	37.88002323090806	-17.420774569511906	19.296761964744327
H	1.02368648	1.7835072	-0.21132947	14.90112177229127	21.52894474737629	11.529329778324781
H	-2.59065724	1.71033022	0.56427057	33.34770252712296	-8.254385588012166	-25.076101817752026
H	-3.64476069	-0.34518468	0.40643236	-32.71674799050322	5.857938833556667	-3.762164919974225
H	-2.48602184	-2.46033007	-0.08856294	-3.3875426389203307	-5.20665167645157	-3.1778840907917743
H	-0.01531175	-2.46311653	0.02010057	-20.787170803484187	35.35744950270509	3.7667550087245405
H	3.20672938	-1.26081375	0.35646557	-11.143988857328207	-0.4254170083647569	-11.58620756634485
16
Properties=species:S:1:pos:R:3:forces:R:3 energy=-311032.20230563276
C	1.67093004	-0.14344528	-0.02688861	9.98908575010238	-11.064871710654275	17.18982403582169
C	0.16177763	-0.27069161	-0.02990389	-25.458777780677618	-27.788303088966988	-1.5328188803180203
C	-0.63917407	0.94568168	-0.08536278	76.17330909492652	13.245371588378116	38.56545660249595
O	0.11789976	2.10985977	-0.0505908	-52.89913495376062	3.77580571855728	-5.137421975882758
C	-2.0144593	0.93129421	0.17609811	-6.478413566138469	12.271879122026869	-19.114623739985774
C	-2.62776836	-0.32390036	0.02049914	-2.5039079457722346	24.10008040058097	-13.121534414935596
C	-1.96958754	-1.53753494	-0.15120239	21.360296381516623	17.054422691956525	13.884993334320749
C	-0.58580085	-1.54927194	0.05044214	37.76547359094805	-1.7275573504902046	4.163032732928455
O	2.38923314	0.88418287	0.00423377	-31.68028518274887	-14.4564588552421	-2.998256115600807
O	2.28996795	-1.3633199	0.04633725	3.214860603375512	-1.2514246301860907	0.15893862303691075
H	1.08128503	1.93755093	0.10056225	4.1555320233598305	-12.943607468105624	-7.423473234997403
H	-2.61296583	1.89823616	0.31594874	21.490455453691528	-32.59737789621598	-4.906324239957779
H	-3.68542919	-0.28548438	-0.07157329	-27.403428698212128	-5.285262410399839	3.8602471509930605
H	-2.51797896	-2.439367	-0.36510654	-5.071583543046763	-9.954756408818504	6.563283428169084
H	-0.13852948	-2.56694066	0.38515146	-2.844740678935042	41.56288653184466	-25.021009212822403
H	3.26589778	-1.22120477	0.18774514	-19.808740548628602	5.0591737657348395	-5.130314093265484
16
Properties=species:S:1:pos:R:3:forces:R:3 energy=-311043.48457902926
C	1.60134321	-0.2368278	0.00630518	51.9096769904554	42.9645730091164	0.596119771435943
C	0.17823765	-0.24768917	0.03201946	-27.908392806700316	-8.221550322678626	20.677338354543053
C	-0.58728727	0.97124174	0.15902339	37.625821501344085	9.208530812847954	-42.09941966692294
O	0.01750417	2.17757014	-0.07217486	-3.1951555023035385	-8.22090921564081	18.21937591289894
C	-1.96289105	0.92580225	0.07965178	-43.76790304416707	-20.93109403277443	-7.340842508662669
C	-2.63261534	-0.30519251	-0.10095573	27.893238419982943	-5.60461836484195	21.10621913324266
C	-1.89990434	-1.50970709	-0.03203374	29.51490966773203	16.164294683135893	-3.5941092295305372
C	-0.48621186	-1.48640363	0.01740552	-3.08786557350118	-22.73012324421973	-25.00743004234767
O	2.32550636	0.78557546	-0.01432673	-22.698159739369633	16.58658492267484	-4.139363291314253
O	2.27356795	-1.38323341	0.0198101	-6.004416904954611	-43.88097163870588	-5.718714746086728
H	0.99956143	2.00340937	-0.11382683	1.2483840768961194	-2.955012978273122	3.2095794592667515
H	-2.60179066	1.80608028	0.0114454	10.944443133303308	7.954978287004288	1.6841013745320035
H	-3.70576193	-0.33706564	-0.26026777	-3.982681416633037	2.084655485150476	1.3417629382057568
H	-2.34126326	-2.47098372	-0.08570068	-19.193304580628126	-20.424001988239723	-4.612273711106508
H	0.14574623	-2.43230288	-0.23642298	-27.988010373671067	35.53899106211219	20.839877214968595