16
Properties=species:S:1:pos:R:3:forces:R:3 energy=-311036.37526005146
C	1.66354939	-0.17556963	0.05697308	3.9204334744018743	-25.16237846554262	-11.650146440477837
C	0.21546509	-0.32204994	0.07780998	-13.285624503930945	15.955153777115411	-8.78700909499478
C	-0.5383226	0.85824552	0.06711688	0.17224888316244963	62.757112229342916	-23.234141283048267
O	0.0802934	2.12887763	-0.08486504	-5.653898180843522	-49.65624566397868	6.532925952119932
C	-1.94934837	0.8578682	-0.04939576	18.128157478695492	28.618465011184156	11.929917103815388
C	-2.72191372	-0.31021343	0.06623756	25.56902880783126	54.22692388299561	7.871166805105385
C	-1.97088839	-1.46094498	0.06798355	23.38155140207738	-63.41349567631506	-29.06391288827221
C	-0.55763536	-1.46424633	-0.13441215	-13.738674256668755	-16.02610595817787	14.708938769297976
O	2.27096601	0.89371297	0.09127477	9.850189172437808	5.441020358519354	0.14879873525492782
O	2.3078919	-1.35867524	-0.07094306	12.129797446826268	-7.241639376646838	4.442721424028819
H	1.07694139	1.87655492	-0.18086604	-21.039713782549818	12.446559757290936	11.138904337294044
H	-2.24780247	1.91431245	-0.18944599	-18.501772108394178	-14.899891427510218	3.86041614855821
H	-3.78874792	-0.1616921	0.19288319	-6.067181018948014	-14.570572881866854	-4.601681904029783
H	-2.44323039	-2.46560413	-0.03611878	2.23044990117709	15.94939950377556	4.6813243711143455
H	-0.02658637	-2.34235241	-0.50734925	-5.8980792517103255	-8.119650157566555	12.614898409326571
H	3.28373311	-1.20259265	-0.06923763	-11.196913463564108	3.695345087380671	-0.5931204450927057
16
Properties=species:S:1:pos:R:3:forces:R:3 energy=-311030.29734851734
C	1.67087954	-0.14037877	0.06423531	-12.32532687521328	-49.99306556385808	-16.77934007449127
C	0.20315171	-0.35910531	0.05919202	-8.734601537497165	72.81684172219849	1.6971772090807808
C	-0.5418708	0.87444612	0.11812299	70.51418722966245	34.59344986676087	-43.67583833589938
O	0.10261681	2.1393116	-0.11163809	-61.36315733775321	-42.09171837773617	19.71889064043129
C	-1.89185385	0.86264208	-0.03312877	-33.769592518991324	18.93225265550532	19.312796167395895
C	-2.67575265	-0.26033061	0.0671215	21.059959088279733	-39.65387678521839	1.3646091639613969
C	-1.94142513	-1.5358945	0.04009867	-44.70189035259452	49.31359418637988	-9.767795929388367
C	-0.5914794	-1.48426601	-0.15303324	43.15743495979069	-30.882110687446374	20.665443695713105
O	2.2184596	0.96994209	0.09659996	20.08426489006496	-40.6698219006823	-0.21603195148143375
O	2.27680016	-1.41211091	-0.06587084	0.7806104982508083	34.18632207814639	5.6611514157176765
H	1.03609298	1.86752134	-0.20823917	20.816138996886682	7.0005129243513045	5.941902593188783
H	-2.31327871	1.84238662	-0.10402945	-14.683230730062238	15.960900397745355	-2.9635213948912527
H	-3.77026084	-0.10038022	0.11357838	11.435489170776771	-15.106388742260817	-1.7314113050317241
H	-2.44301572	-2.48401777	0.05187559	-8.974705362372353	-10.383677578598583	-2.809080465398426
H	-0.00956508	-2.38281865	-0.3342924	-4.28776934933505	-11.44432853981475	1.7822991243796424
H	3.24566531	-1.34195886	-0.17177083	0.9921892301069027	7.421114344527859	1.7987494467132144
16
Properties=species:S:1:pos:R:3:forces:R:3 energy=-311026.5973258038
C	1.67213571	-0.13976758	0.06256862	-24.603074307601982	-40.67202328408882	-16.00926120758744
C	0.1945557	-0.35628485	0.05102114	0.8538900886716774	65.10332393023715	2.178590871279806
C	-0.52755111	0.89434628	0.1286635	73.36805584485957	25.281791189955015	-50.495339384479884
O	0.09900043	2.13375963	-0.11923832	-20.8330351285318	-36.71109324756946	17.84311588154229
C	-1.87320015	0.87423327	-0.02101798	-51.00223844410912	14.846244042741287	20.472304561691146
C	-2.64755619	-0.24301456	0.0685185	12.375217172511904	-69.87866456568504	-4.287781497575003
C	-1.9363759	-1.5600428	0.02359585	-65.72799099396228	43.49588991897541	-2.3405657454065194
C	-0.5948019	-1.50612009	-0.15709796	28.48391591118764	12.047954026148206	31.448993005020018
O	2.19975156	0.99692297	0.09894516	23.737611622001	-60.1829871672601	-1.8526488179314924
O	2.26267248	-1.42980118	-0.06238327	17.906192114777316	44.93282020371742	3.051885233627319
H	1.09601687	1.89077855	-0.19946096	-19.647633421855097	8.677227736961951	10.497701169441248
H	-2.3912635	1.80372618	-0.06840651	-6.209576578720333	23.443237119227266	-3.652839713191138
H	-3.75093721	-0.13163473	0.07061236	13.816711237484277	-8.413435321381906	0.6591433797226609
H	-2.4781808	-2.53113337	0.08478026	7.16004436008139	17.167094129044706	-5.642053952261922
H	-0.05475134	-2.38893685	-0.22420261	23.189276938859418	-45.518853149532085	-6.556255257589945
H	3.24135236	-1.37572884	-0.21239662	-12.86736641565339	6.38147443850868	4.685011473699026
16
Properties=species:S:1:pos:R:3:forces:R:3 energy=-311028.4074532879
C	1.63965263	-0.16743788	0.03846244	-11.625959478299011	14.649995375711754	-3.6018564136513787
C	0.18050192	-0.29539304	0.02482313	15.85942410620349	-39.7092943306663	-1.4341370275520917
C	-0.43876497	0.96924005	0.09608089	-103.14477951326248	-56.789419744078536	-28.89773444362284
O	0.0774691	2.10829463	-0.12848566	9.236092565122608	77.35050196181376	6.00449568087698
C	-1.88032252	0.94188798	0.04833787	14.301097512812273	-44.93854527335511	12.463183988431993
C	-2.53816477	-0.28396181	0.06022758	-33.123659466013976	2.340623573622529	-15.199791748494297
C	-1.97169238	-1.57188622	-0.03208553	61.90736654400147	30.504138428646986	3.468914714904963
C	-0.56098769	-1.58808592	-0.12030996	-12.26155977828909	44.13361801227261	35.974880010454385
O	2.16112644	1.00991343	0.1041388	24.003410220980083	-88.3535191432287	-4.192018939887287
O	2.22471411	-1.4410162	-0.04711007	16.820121481305986	41.705635777097896	-3.132011184241784
H	1.052403	2.00985243	-0.0391443	23.456016779966046	-4.922514387927062	-0.8294027123119622
H	-2.48978124	1.81615547	0.01473399	-2.5611601044036005	21.170583679132676	-0.269532617330037
H	-3.63440352	-0.2652417	-0.03018052	1.9686756899203572	5.106908465577035	7.38974025670837
H	-2.52816646	-2.4813191	0.08981713	-9.71832227973769	-8.882582741401247	-5.788271411680245
H	-0.06381771	-2.54300494	0.0118761	11.665283994062056	0.850791783348872	-8.794925180631093
H	3.17922267	-1.38205838	-0.28910131	-6.782048274368592	5.783078563432745	6.838467028026478
16
Properties=species:S:1:pos:R:3:forces:R:3 energy=-311029.21943478845
C	1.61943174	-0.17328733	0.02724583	-1.687212621121308	7.789503274946514	1.1988564779052986
C	0.18559228	-0.28402125	0.01662019	-3.363713492973916	-58.05066673653808	-1.9397072028564202
C	-0.44242746	0.97324466	0.06545862	-107.6612639692655	-45.528107956697355	-16.26861082504638
O	0.07228694	2.12019642	-0.12706352	49.643372135518625	70.2000234348823	10.727494094249597
C	-1.89210933	0.95689745	0.07808081	27.683682624530533	-56.904972193409165	0.5423591259296712
C	-2.51179949	-0.31533275	0.05003915	-63.40533763887579	77.3798781629561	-8.34857920909462
C	-1.96845496	-1.55059316	-0.04751175	70.58513806606526	-51.87145234835609	7.451385587231771
C	-0.54459929	-1.60664374	-0.0880922	-36.24888917238478	98.2270007938543	20.575468581563552
O	2.15922744	0.97789087	0.10419927	28.09917590930066	-61.25751012026367	-4.105251760144803
O	2.2164684	-1.42611838	-0.04222376	18.46617265378804	31.817087246975518	-5.410421491095507
H	1.09267755	2.02173525	0.02255022	-15.344530139173445	-6.521924111452011	-8.530125540835046
H	-2.45142466	1.87622137	0.03497811	-4.746012177864443	6.992847874456853	1.5875452049173415
H	-3.61519416	-0.27725409	-0.02319559	5.245446580712539	1.3250310215320482	6.709085159293859
H	-2.57901087	-2.4830217	0.05226976	10.963364322864363	17.997196684357203	-8.468052224210854
H	-0.04050733	-2.50849067	0.01782661	28.189304868762648	-36.083014272918405	-2.832080689720563
H	3.16856357	-1.34305336	-0.28432436	-6.418697949883551	4.489079245674141	7.110634711913048
16
Properties=species:S:1:pos:R:3:forces:R:3 energy=-311034.8189195896
C	1.72292291	-0.23151453	-0.01900702	-1.6351869881432723	27.525633351252672	7.986194897181827
C	0.21175524	-0.18963966	-0.0512931	-21.217909205159657	16.798456368441485	4.628707683535215
C	-0.6662329	0.97990114	-0.00285755	57.94314341850389	23.420585548653904	-5.4200387481600805
O	0.02758334	2.20073527	-0.05487789	-34.0846426112728	-27.275049054329614	6.086711710940341
C	-2.07701921	0.88409464	0.10097704	27.145435192288993	36.76481546963959	-5.597709878333145
C	-2.66981725	-0.36640356	0.01333442	-4.844434543318624	-0.21135987252565863	-2.8168680637818473
C	-1.92358344	-1.53336407	-0.07184071	33.56620019241631	51.22676907867467	13.520143827178105
C	-0.51387221	-1.33693532	0.01354628	-10.079765573726771	-125.26965751515951	2.370498611636246
O	2.40801272	0.8100618	0.05303091	-17.315024003626814	-21.00488166538393	-1.9472861514224045
O	2.29367136	-1.48117677	-0.02929079	-9.351746032167693	8.504770616987743	5.566780543965829
H	0.97178061	1.90091638	-0.00035138	6.209308268939681	10.308223494503272	-1.3329329113882848
H	-2.5923454	1.8714057	0.20967907	2.1979271829946017	-22.09948407553343	-3.3947243951839328
H	-3.73115314	-0.53198226	0.03417692	-17.405349541976733	12.131784121669106	1.744071927830941
H	-2.5234957	-2.41421834	-0.00085038	10.571632146728646	-26.675087775202158	-1.9192830945605734
H	0.05816493	-2.31071786	0.18679524	-10.386729826286658	26.88323776069869	-11.27210542063588
H	3.23464995	-1.42293661	0.26954221	-11.312858076193102	8.971244147613309	-8.20216053880236
16
Properties=species:S:1:pos:R:3:forces:R:3 energy=-311035.2287966235
C	1.73539774	-0.23788689	-0.02184062	-4.682722628772961	47.723477711070636	10.091550939145352
C	0.20519727	-0.19105149	-0.0491596	-6.824709482239807	13.75511380801864	4.4615918720779035
C	-0.65711225	0.97544954	0.0032642	39.96701855433105	29.581859605745073	-6.250032059059889
O	0.02078109	2.20483633	-0.05389151	-45.10156667915415	-27.436165764311397	6.388361612257853
C	-2.07750668	0.88679412	0.09861613	30.837285676832078	29.33184196681381	-9.517046578420125
C	-2.67093862	-0.36281202	0.01319619	-4.518131946627298	-3.3037304780635197	-2.3557211342298037
C	-1.92996445	-1.5345367	-0.06904078	41.736873305967244	52.29940902221237	14.262004517760193
C	-0.51618422	-1.34193324	0.00604032	-13.021873306807697	-122.43540763429263	3.3074893018637113
O	2.41723109	0.82126979	0.05168832	-25.49987214511208	-39.92458600518293	-3.063711431318924
O	2.28932262	-1.48421843	-0.02563639	-10.103004221660674	5.91858062973146	3.123708582118969
H	0.94274784	1.8987774	0.02932144	24.38555629017987	9.420830547499307	-1.5572880432538545
H	-2.61535887	1.86021056	0.15689682	4.1884369864609	-17.95102663998439	-0.3397842568527981
H	-3.73115659	-0.52694741	0.03692895	-18.706160299651646	12.186910253906252	1.4115486694447388
H	-2.50057923	-2.42756166	0.03002348	6.01411633696711	-26.94826016505702	-2.6285587611749808
H	0.06027514	-2.31612867	0.17148789	-11.526325853917394	27.716531462065056	-11.093389229476196
H	3.2359194	-1.44624082	0.24323231	-7.1449205867944015	10.064621679829267	-6.240724000882125
16
Properties=species:S:1:pos:R:3:forces:R:3 energy=-311030.98809260066
C	1.68280915	-0.21389084	-0.07342123	-60.58598837566527	-12.031659347759547	20.98794872243532
C	0.17408205	-0.22918458	-0.02684309	3.8694031931015593	-11.592852612296555	-3.432454587147494
C	-0.59253049	1.0282048	-0.02652271	16.99816031293075	-7.547099484532225	5.64411544862023
O	0.11736422	2.25057299	0.16169702	-37.83304615777393	-66.30552606054543	-10.171985179714307
C	-2.01910766	0.92733023	-0.11761149	11.338192470746732	-24.296344228042237	10.132422019624482
C	-2.66875541	-0.35250773	-0.03349499	57.00076429512192	1.203688387236995	-8.643730762279
C	-1.86223364	-1.5480794	0.01376773	-5.249698033327997	34.39124968469202	10.760640702580034
C	-0.46985413	-1.50807723	0.05166416	-3.664142112274672	41.59520238893467	-1.9408710416581312
O	2.21857816	0.90274306	-0.07765063	39.466804186585506	-36.68043513943271	0.7296316558129256
O	2.25280292	-1.54104831	0.03070211	4.74867721910756	71.34410620546196	-6.155381827671646
H	1.01759558	1.78860396	0.25614247	5.93673290378448	30.72078982475747	-7.032529313043457
H	-2.55535274	1.86001896	-0.172306	-10.169964326268705	7.188732228500491	2.12854582635377
H	-3.74128446	-0.53466658	0.02317599	-2.1028914123827267	13.840211103224698	-3.627200256801149
H	-2.40919375	-2.44347444	0.17079517	-7.423819165035273	-26.10749644145132	0.34669566472176633
H	0.22430639	-2.32646521	0.23938282	-11.868135160812056	-8.830621191063557	-6.704946526145913
H	3.20245598	-1.34391018	0.19355673	-0.46104983783778064	-6.891945317685051	-3.020900545687441
16
Properties=species:S:1:pos:R:3:forces:R:3 energy=-311031.86526223546
C	1.64967038	-0.21895908	-0.10453688	19.531710684490655	43.60449755279365	26.78883490602115
C	0.20076979	-0.30581736	-0.08946175	-37.10488045269084	72.76390903458645	20.930276513280205
C	-0.57754202	1.04671989	0.04306033	15.836900013554652	-71.36782530401163	-21.67755163722888
O	0.15893388	2.16043276	0.1330238	-47.48914341062468	20.408794112127474	1.6591891629657842
C	-2.04709194	0.89734294	-0.03941107	53.93058620086511	5.023849027109566	6.137398376370986
C	-2.63961717	-0.37232588	-0.1464457	-3.353259821990633	22.651704521000916	8.027188918968138
C	-1.92420166	-1.52807161	0.0617552	31.773729036952716	14.367864013595607	-7.925370818090722
C	-0.53491099	-1.45777487	0.12480065	9.392011846022042	-35.98879529218881	-11.714504166005138
O	2.26804253	0.89697788	-0.07129113	-4.447922040604479	-46.25605941948069	-8.660163421994055
O	2.25867877	-1.41084378	0.03862552	-19.736121176845487	-18.539095672946342	-8.235411304092828
H	1.16101387	2.01680268	0.08790635	-9.12734235347057	-26.370232610560155	-3.0827336148922737
H	-2.7396079	1.71536063	0.06621578	3.139475642764397	17.367295264405858	-4.984708966096535
H	-3.71223034	-0.3941662	-0.33631433	-2.7382125210760466	-1.5073906655854887	3.315724722255473
H	-2.31052993	-2.50334748	0.0283911	-24.009020958550185	-28.37862346259971	2.5309018712457427
H	-0.01684993	-2.43346625	0.21942202	0.22236554819367058	13.239007760457488	-1.7456923481743776
H	3.21660116	-1.43692611	0.13210148	14.179123763009864	18.981101141295817	-1.3633781945327594
16
Properties=species:S:1:pos:R:3:forces:R:3 energy=-311027.712580521
C	1.65196405	-0.21654423	0.04359845	-5.398897984230603	-45.54578039288288	3.976851125554297
C	0.17109529	-0.27289348	0.18810301	32.49418251955776	34.27605472878018	-6.21154984792853
C	-0.51011209	0.98493624	0.06452681	-68.35587091946852	-10.731747370872302	-7.460219140992922
O	0.06904471	2.18098586	-0.00833784	23.844689650548094	-11.441149035199448	-8.012654012312238
C	-1.96333994	0.91175552	-0.08109092	-7.337095299615139	-6.031347325712168	38.36490045723597
C	-2.69826377	-0.35729909	0.0248114	67.4763171220434	76.57862965240095	-18.256059114704122
C	-1.9551363	-1.51419495	-0.09918605	38.75611376413628	-8.96591300666095	5.216380303941272
C	-0.5402174	-1.42762683	0.06440499	-11.080253654466517	-69.1725042694621	-39.503717638033606
O	2.16849347	0.88578496	-0.08422093	38.26858456896792	-4.769163636277854	-5.199672297084589
O	2.40781085	-1.49293665	0.00770684	-29.271742552779088	59.76711990760752	0.8000994200346303
H	1.05826374	1.88718558	-0.17006144	-15.714057416489226	17.581334266758127	11.716247731264891
H	-2.52532509	1.90548298	-0.04947848	16.525659258307805	-30.177499363229114	-3.8173171885248904
H	-3.74766217	-0.27712632	0.03663083	-33.12699004804965	-5.676923335617041	-4.0813172870006795
H	-2.40806507	-2.41543837	-0.49521254	-1.780478545977791	-10.633116735608496	11.61534394187237
H	0.16347109	-2.2756258	-0.2383173	-31.409207806221655	11.126644994036912	17.782733086251145
H	3.35297343	-1.2659928	-0.18099014	-13.890952656263048	3.8153609219385323	3.0699504604269885
16
Properties=species:S:1:pos:R:3:forces:R:3 energy=-311026.58689474274
C	1.69873425	-0.11520138	-0.0613232	-43.44662467084576	-34.30246256852126	14.88441871451147
C	0.15410751	-0.2557902	-0.1324685	78.99981778742975	-42.180657171668045	18.74767252207495
C	-0.52056444	0.90889247	-0.0173322	-92.05737110262169	14.401345530077284	3.4099405491783106
O	-0.01673782	2.11600184	-0.00569693	43.672125737703695	37.00361374828474	-8.45335840004087
C	-1.98781153	0.91625267	0.07889463	93.68553477349855	18.91035534110263	-2.075945388581465
C	-2.59895582	-0.25628826	0.00526828	-74.37386507474957	-57.94651123781508	1.2660130213214542
C	-1.89594163	-1.50961657	-0.01586168	42.54312818770983	-39.404506679168996	-2.4401133466796567
C	-0.46915195	-1.5657368	0.02453239	-58.77780622204668	95.9822699938955	-28.97976533205574
O	2.36708255	0.93099172	0.02861864	-11.417354904986329	-41.79961261807816	-10.394944386473405
O	2.12930158	-1.4695767	0.06639347	41.745954513048744	47.7621848794264	-0.8367509021249934
H	0.97452474	2.03751335	-0.16203034	-10.124906231710412	2.2238833512666303	8.849761516720784
H	-2.35435547	1.90919	0.18833527	-23.175134617456802	14.26650227793376	-0.37425401102993516
H	-3.74561716	-0.20044677	-0.01219745	33.86343618270741	-13.818425038461246	1.0044301105441178
H	-2.29022511	-2.55733828	-0.13955102	-14.721168251611406	30.934533648680308	7.165665999895052
H	0.15520876	-2.3953577	-0.12123311	9.130096494635392	-33.403850618028045	2.728138070279845
H	3.11009385	-1.46328287	0.23898225	-15.54586260070452	1.371337161073902	-4.5009087375398105
16
Properties=species:S:1:pos:R:3:forces:R:3 energy=-311039.3116760905
C	1.6906248	-0.24435038	0.06490093	-15.62123244252538	14.075115818164607	-16.12496831834392
C	0.19846587	-0.23106233	-0.09322909	-12.901281361719912	16.69264196821478	10.73829041085504
C	-0.59097242	1.01431895	-0.12851551	35.365287864782005	-28.67206923794496	21.33773596919498
O	-0.09843303	2.27623461	-0.09676692	-1.7023262559878125	-10.554035208596336	-6.181342230873843
C	-1.94902586	0.90406624	0.03679492	-37.12908372985221	-12.776006286713223	21.425566664153862
C	-2.59680983	-0.3607402	0.11424366	-4.44837119507388	38.87212728784222	-19.140212950104917
C	-1.88904405	-1.5345876	-0.04641571	-10.054251844976475	13.612463624238917	6.58080838736521
C	-0.54932403	-1.43503336	-0.03996738	105.44130775070877	-32.26027853438599	-28.947373024287515
O	2.35809683	0.79183251	0.15803935	-5.390885496656413	-6.313149491594993	-2.234071568769969
O	2.27121932	-1.48879148	0.01821647	10.166847685066118	10.17679053569827	-8.42138346923135
H	0.86082406	2.15322853	-0.08573051	25.640093016601597	4.153386391569987	1.8162823514233768
H	-2.44253189	1.84405797	0.36167119	-2.980637722008258	-12.612889695482332	-15.102801523291138
H	-3.67366376	-0.3610045	0.12737614	-12.54793737463679	-1.1650935451543534	7.647682142159286
H	-2.27331443	-2.50998313	-0.14300365	-25.251724171101795	-24.63281417039902	1.057185567070166
H	0.13015348	-2.37052626	-0.20139837	-31.322043525094184	31.89804457888564	13.529730533415908
H	3.22730392	-1.33702338	-0.22166785	-17.26376119752565	-0.49423403434316876	12.018871059264907
16
Properties=species:S:1:pos:R:3:forces:R:3 energy=-311035.44360151456
C	1.62682637	-0.21729059	0.02277405	33.6280134185652	49.313622203422746	1.804103075135867
C	0.16352589	-0.27838853	-0.02439194	23.779777280371242	68.01276834575235	-0.12254774647505615
C	-0.58013744	0.98846183	0.08705822	-13.145458332709827	-33.370237423880404	-51.48338131556488
O	0.00925697	2.18799403	-0.09815071	26.779657153442233	-16.578513566188732	22.302738221517984
C	-1.98705253	0.92119968	-0.08380168	3.1864376459504586	-13.653938143514292	44.197393629941715
C	-2.64567829	-0.34729585	0.17284921	28.748727668385474	25.506899623547195	-38.94166240104639
C	-1.84503048	-1.51184875	0.02303014	-17.1935927824089	-27.457005399659057	-4.516265407586042
C	-0.47119057	-1.46895609	-0.23588999	-27.028936226279164	1.445816494886711	29.762469096194796
O	2.34355944	0.85311984	0.0924938	-46.51150472371771	-49.56756265543194	0.46989519223425746
O	2.21501639	-1.43480055	0.02873889	11.057287511134504	-2.3833924657651413	10.495799155974842
H	1.0002558	1.95007951	0.0077328	-8.612337345771138	12.67818093442629	-5.795320936249677
H	-2.40803011	1.94298653	-0.15805982	-12.752629032755536	-17.64710856143413	0.5537849166084283
H	-3.74675449	-0.41977488	0.1666925	10.625863049437665	0.6726096973546524	5.875787105062405
H	-2.27857692	-2.53737751	0.0732711	-3.0388728643111116	18.505625477148467	-1.7983467101618138
H	0.18109853	-2.30627484	-0.39891909	-4.425373670791847	-17.850090109619867	-1.529957406813726
H	3.12166336	-1.32155611	0.40061911	-5.09705874854189	2.3723255489552555	-11.274488468772748
16
Properties=species:S:1:pos:R:3:forces:R:3 energy=-311034.9814848737
C	1.62507575	-0.21393	0.02502765	35.01951559490163	45.1707678268755	-0.20890187046165914
C	0.16082837	-0.28270356	-0.02677826	28.83920708618531	76.97137938607484	1.9413706905941692
C	-0.58144837	0.98869017	0.08667769	-14.27260312080531	-35.525695515591266	-51.6902881719766
O	0.01120735	2.18580625	-0.0972791	22.09006854501011	-16.3752712619058	22.161042464020685
C	-1.9868335	0.92353888	-0.08500299	5.559914863115534	-19.576690867936748	46.089961872465125
C	-2.64219482	-0.34555874	0.17153454	24.816268766700485	22.660394556727017	-39.183935179774394
C	-1.84423575	-1.51334905	0.02499235	-20.278300192744712	-30.745394687780447	-4.904888559396982
C	-0.46864187	-1.46804168	-0.23381571	-40.64093170784884	1.0278534881177483	29.701586948671473
O	2.34411774	0.85324725	0.09077151	-47.404818856373794	-48.17716871747911	1.363898291400858
O	2.21435832	-1.43263255	0.02848544	13.633567319661223	-1.9809627729332595	12.433952772266903
H	0.99111445	1.93681696	0.01144303	-1.715955949400673	14.040986304441477	-5.643927645754673
H	-2.40843744	1.93645318	-0.13702916	-15.202472606744358	-11.592799236152922	-1.1163991696711584
H	-3.74639592	-0.42026516	0.15417256	12.764248762675935	1.0766239297040696	6.650038395709214
H	-2.28669817	-2.54863882	0.07086351	0.7606159266731592	25.84228228530838	-2.003341296487209
H	0.15281502	-2.30950438	-0.40964651	4.627927560031721	-25.05915286590736	-2.7278313156825598
H	3.12254836	-1.32142756	0.40705645	-8.596251991037184	2.242848148437899	-12.862338225923223
16
Properties=species:S:1:pos:R:3:forces:R:3 energy=-311037.9827727028
C	1.62211392	-0.17647237	0.04153207	17.924063363490067	-11.712096110041944	-16.45615577704453
C	0.15135135	-0.28815873	-0.04423333	44.4900037750292	91.55811851627284	8.845384728901712
C	-0.59631699	0.97855107	0.06702174	3.6333123971630497	-27.21205624296955	-45.11135314656281
O	0.02925094	2.16469448	-0.08511381	-5.092596652613475	-10.820611751145051	18.869026723388014
C	-1.98244122	0.93266776	-0.07908889	-3.3998103468522665	-27.344236628169963	46.65013847631397
C	-2.60776075	-0.32681881	0.14841995	16.7370536695147	-7.5012500470494965	-32.35259868799828
C	-1.84542363	-1.53383406	0.03888014	-16.154194847727123	17.48971806322271	-7.872024162208088
C	-0.46647552	-1.46471622	-0.20844297	-53.87358350875206	-69.65089890442769	8.867305815534046
O	2.33754768	0.84431905	0.07774916	-26.72083631411101	-7.625039927922012	8.130551024201532
O	2.21191807	-1.41547498	0.0297432	-11.184874762935285	0.3529851046307808	7.506908834813028
H	0.96856232	1.88754606	0.02311614	24.18081552993309	14.288987965955748	-3.3567760179061428
H	-2.48402375	1.88420191	0.01828155	-11.953529429644231	4.645792897499554	-8.120889986465842
H	-3.69408274	-0.4168296	0.0845974	-0.8112201988687864	3.256330220659319	9.543116182102644
H	-2.33339576	-2.5199058	0.04406648	-0.3300400540132784	9.260034716009708	-1.0477718354430605
H	-0.02198368	-2.43427769	-0.50546736	10.386960050723738	17.16553809924562	10.262169087290163
H	3.09756188	-1.31095169	0.4085861	12.168477329663649	3.848684028229444	-4.357031258916228
16
Properties=species:S:1:pos:R:3:forces:R:3 energy=-311038.7753497398
C	1.67334845	-0.25406653	-0.04494646	-38.3242658947752	12.349761133046826	1.599292120193036
C	0.2000532	-0.35643238	-0.08735326	-0.385383991794682	101.26411958637298	25.910026676921593
C	-0.53168542	0.96506875	0.05770819	-12.21213385445758	-44.82623833817744	-28.872278826592755
O	0.02450736	2.15536023	0.06383832	26.537324867780143	8.713239146830503	-0.1175399417744063
C	-1.92809427	0.91791765	0.02585052	-48.79778425310926	8.976443574971539	14.708696935901434
C	-2.63188289	-0.28992053	-0.05289907	10.962760366221392	0.5236694784071367	10.195451656756278
C	-1.96149383	-1.50739321	-0.07603525	19.422798794562997	34.57992316253355	10.437226323548119
C	-0.58148434	-1.45117428	0.04522529	26.62817670831225	-97.13698551748301	-30.552920367959143
O	2.20056717	0.87951738	-0.07719507	14.09201285341741	-20.390534668186067	-0.23054618432177498
O	2.38534522	-1.39916839	0.08952919	-9.001768596120804	15.130577640706752	-0.30226402557552373
H	1.00004797	1.91693511	-0.06012579	4.284617292081015	10.198795132525143	4.8356217066662825
H	-2.60756526	1.81531478	0.17740959	31.35186319359485	-13.732280308841402	-6.9954593831408465
H	-3.70683902	-0.35406563	0.06274227	-8.693226221496463	10.903149910800222	-7.502106326189844
H	-2.53238322	-2.38512983	-0.10475629	-11.332468085013463	-35.82866128906344	1.2411197245006014
H	0.05660064	-2.39761786	-0.00248708	-25.997301516596384	16.435115716370532	5.9653329677637315
H	3.25193318	-1.0165719	0.29687121	21.464778337393472	-7.160094360813954	-0.31965305669679145
16
Properties=species:S:1:pos:R:3:forces:R:3 energy=-311042.2325452797
C	1.66018109	-0.23683531	-0.03455902	-8.271880788168927	-8.228116782585428	4.754766643751872
C	0.18466847	-0.314301	-0.02506166	-17.172404354613708	19.56605609306954	9.722706340570348
C	-0.5885065	0.93173406	0.03746965	108.26129390209033	15.766770523595563	-5.825254431153525
O	0.0198151	2.15949935	0.07182051	-2.2103417621620673	-6.969494337101578	-4.565843666803853
C	-1.90812265	0.9540001	0.04871197	-109.52185857531128	-51.83637347692511	-11.868836847693856
C	-2.6397504	-0.27638632	-0.07819541	6.312027868519523	-6.992257721572873	30.296280623846137
C	-1.96924519	-1.5163211	-0.04470767	-0.22864351025708168	-12.302414578808191	-10.82289272081502
C	-0.55975007	-1.49061468	0.01233309	-16.149353209694674	7.95483997375342	-17.840685748590538
O	2.21709824	0.85920929	-0.09565467	16.467642796304265	2.2893525750890302	-1.1974255176874133
O	2.41309526	-1.40440054	0.08385906	-13.377746045899999	25.490771653370818	6.135555597883414
H	0.98601686	2.0141044	-0.11731186	-0.5389215263952376	-4.680913388285582	6.590861426206462
H	-2.48821765	1.8609326	0.03838919	2.1949556652075946	13.036092155855327	3.2155528947995036
H	-3.73629713	-0.35484104	0.05364932	8.96824694654074	13.870090079994876	-11.581620832359047
H	-2.53453289	-2.51090372	-0.17012577	19.80142670227577	35.07035972643363	8.653684063797481
H	0.01240116	-2.36587495	-0.10369382	12.996000886172327	-34.691835653473746	3.3731306391343696
H	3.30047428	-1.04987121	0.34783608	-7.530444994607657	-7.34292684240963	-9.039978464886243
16
Properties=species:S:1:pos:R:3:forces:R:3 energy=-311044.06801983115
C	1.64674395	-0.22722425	-0.02514283	14.661398134239143	-9.719356187548973	7.755213977814949
C	0.16781047	-0.27492084	0.02372278	0.3134051796255388	-56.94577524461444	-8.541964179096274
C	-0.58980743	0.91328494	0.02022601	73.70302104341714	48.275303471814325	12.91092896395073
O	0.01628164	2.16058667	0.07616071	-13.999518185711063	-10.602423101382351	-6.962284987185513
C	-1.9359934	0.96068121	0.06082615	-56.06156531585974	-46.24236594311671	-24.016974562951958
C	-2.64217873	-0.26913041	-0.08425209	9.291828177025707	-1.6841763064385418	31.811958855755854
C	-1.97286835	-1.52462857	-0.02608705	39.13898370748609	28.47657078092274	-15.588584717724492
C	-0.54838163	-1.52100422	-0.01905297	-12.205989306781342	15.490514656916636	-5.011912413776161
O	2.2339908	0.8449516	-0.1092566	12.060353467879542	13.187408687597786	-1.8481647842080284
O	2.42769517	-1.40085581	0.08132393	-39.35788690999305	13.19321599950221	2.9208674672805013
H	0.9775211	2.06525784	-0.12643904	3.274992460846489	-10.068695749915467	5.030529166690928
H	-2.37828174	1.93953434	-0.05014149	-10.409424258255415	4.030085621066438	6.169791131436552
H	-3.72773382	-0.29044761	-0.00795554	-3.8914808300287045	4.670304025042156	-8.500494522486616
H	-2.46245105	-2.47344216	-0.17964162	-10.852843937150427	-4.443258321040125	3.7656604404643534
H	0.01031525	-2.46091154	-0.15419133	-3.252823881300786	7.5795637974386105	7.008231617590191
H	3.32192617	-1.10255384	0.34625317	-2.4124495454389105	4.8030838137559035	-6.902801453554951
16
Properties=species:S:1:pos:R:3:forces:R:3 energy=-311043.51893238316
C	1.62530198	-0.19989185	-0.06680529	0.6119599827779258	13.053436216319922	30.341417095192035
C	0.19440351	-0.22523892	0.07644223	-12.390176038381908	-8.516235344852989	-17.56006943527807
C	-0.54079779	0.97689661	0.00342705	3.857131385676343	27.505203369530385	28.920722283145338
O	0.07210771	2.19553692	0.14023127	-11.727803419010476	-13.50118043056358	-15.779927954920497
C	-1.92601066	0.88469364	0.04378859	-51.602308271789134	-0.42317385525350115	-8.824333781673815
C	-2.60802024	-0.3453953	-0.06698841	27.304343260263956	-14.496566516534253	-22.25727819703443
C	-1.89313944	-1.55710829	-0.13845045	55.06108631638328	30.587870285364307	26.15180186139841
C	-0.47688633	-1.44691607	0.07945419	-27.878550624371183	-37.492250103352326	-2.6984676223446264
O	2.25474289	0.87522719	-0.16863028	10.720147955800305	-32.44387548447939	-6.671765081979914
O	2.16635812	-1.45531633	0.09270075	13.882897084204243	26.46174721103824	-10.812399336338073
H	1.04093088	2.00867573	-0.03000593	-1.237915234353571	0.21482313284129342	3.839064751257113
H	-2.65455511	1.72224175	0.05183964	25.150306704184192	3.0977654138340496	1.20026524810694
H	-3.65999798	-0.37051027	-0.310606	-11.51424974133609	5.559731181106987	8.01500101940955
H	-2.28808148	-2.54381373	-0.24727863	-15.47389831056097	-11.746138945429818	-0.2586573654930563
H	0.13546542	-2.36210777	0.29189152	-14.146524986413134	16.030500121911725	-13.703927149069091