15
Properties=species:S:1:pos:R:3:forces:R:3 energy=-170211.02023581025
C	2.46917404	-0.05601015	-0.09946938	-24.573084535203915	23.26348089088366	71.94327402509256
C	0.9764695	0.01656165	0.22349546	-3.3351598731270284	-62.364690444753116	-68.11708670056842
C	0.23307434	1.1592224	0.04209356	1.6564484170681666	45.59987338848169	28.37424666191924
C	-1.16787466	1.19198337	0.08563958	29.53913941557468	-112.5118718302205	-10.428199140428857
C	-1.930035	-0.01319454	-0.00674372	27.05586270986545	33.516267287652916	3.2708196093099415
C	-1.14543605	-1.12566613	-0.14366301	1.5027256396482762	-61.48560554511153	14.351706187555218
C	0.23521756	-1.18322012	-0.02283261	11.469384065846253	54.36296992521596	6.9905031147096395
H	2.63888599	0.95301769	-0.31247616	24.566012808013692	41.68131372319864	-27.121582719497095
H	3.01296871	-0.12617435	0.85972759	4.838748143900938	-14.122056894196247	-2.8892503769552715
H	2.85246504	-0.72669652	-0.82911081	-0.2755396586257447	-18.36487390128695	-17.185510288914077
H	0.77038054	2.1365318	-0.04973506	-9.249591810497895	-11.914719940252493	4.2693715220049295
H	-1.58406432	2.07600021	0.10429618	-57.72609866573438	109.98298617462811	-0.7743371393210936
H	-3.01160815	-0.15338127	-0.09064604	2.179272455433125	14.284155785401065	4.766915229269562
H	-1.6192583	-2.10305743	-0.17940464	-8.561399930374597	-5.106774968788189	-13.081106958807238
H	0.86557243	-1.93203246	-0.43759242	0.9132808182131658	-36.8204536508527	5.6302369746309635
15
Properties=species:S:1:pos:R:3:forces:R:3 energy=-170222.31676030654
C	2.49199242	-0.05451222	-0.04605898	5.06206241290487	42.82396773931772	-22.63247968461501
C	0.97173866	-0.00315221	0.11896028	41.90556664420161	40.073404916306316	-15.603707494765251
C	0.23280525	1.16362311	0.07009585	-40.363893006968446	16.36595322454348	10.92843334568548
C	-1.19938727	1.18765271	0.11392034	-2.320766286346409	61.88600803733002	-21.21738142771785
C	-1.93730821	-0.01232134	-0.00358688	29.688032943467817	9.015179501653787	5.040527751741935
C	-1.14174509	-1.16518086	-0.13310696	-11.317908757157438	-1.5637687325791354	8.548321763587639
C	0.26254143	-1.12824872	-0.02762852	-36.86685292508772	-92.43303792346669	-24.15815406907886
H	2.9504563	0.96063924	-0.4372944	-25.565870658588878	-37.874273128442034	4.626147182191861
H	3.0107486	-0.0835785	0.92745023	-0.2746119501247584	-21.482237798514486	-3.6234990818509134
H	2.67744161	-0.86381026	-0.8181441	11.880800504737811	15.233314539162187	26.88707522264272
H	0.75275343	2.08105166	-0.11228044	6.871769126705477	19.239781856623054	6.03623700740943
H	-1.68442736	2.32212752	0.01134448	21.47467408345314	-71.3206466104604	9.862575812477022
H	-3.02649561	-0.068019	-0.0397387	1.9194088866119234	3.4028291935837047	-0.6750763086530562
H	-1.65504188	-2.11330112	-0.32470485	4.989401695015334	-0.33656303037610635	1.0202520188211488
H	0.78018038	-2.08926229	-0.30929522	-7.081812712824344	16.970088215318405	14.960727962123899
15
Properties=species:S:1:pos:R:3:forces:R:3 energy=-170230.3514938046
C	2.49623163	-0.0447136	-0.03404278	8.170492836769494	27.68135256474643	-16.041772543356018
C	0.97985592	-0.00389418	0.08680456	24.224351512963107	52.98399754590184	-3.111627084453325
C	0.2251063	1.17351848	0.08011821	-34.38554414319149	-6.007709548157619	5.214067927411828
C	-1.20662029	1.19426172	0.11631748	10.421656136451098	40.48424272758094	-19.152115121633553
C	-1.93188953	-0.00812319	-0.00155431	27.892556726634535	-0.0415097298769532	4.411887740237581
C	-1.14384844	-1.18038352	-0.12828433	-5.63903677073646	31.859258667532266	9.150243971529902
C	0.26327646	-1.131201	-0.03402614	-47.69989122556547	-74.90207197441272	-15.069055400840474
H	2.98455247	0.90632406	-0.48421642	-23.910779566021464	-27.12677713509218	10.446850353376748
H	3.0184185	-0.14121414	0.94322238	-6.0386948551668205	-11.3265285770786	-8.890907183353981
H	2.66210373	-0.87150903	-0.75658191	15.50200206854984	3.837166028599231	13.843437881986285
H	0.74389779	2.07712883	-0.10581445	11.62767812866869	29.04947482091282	5.051661372007526
H	-1.68558886	2.26348463	0.00810009	13.830679296023217	-49.28636189091263	9.890704872892872
H	-3.02320203	-0.0300663	-0.02593333	1.9520012160924765	-0.4332644050894653	-2.0261021411880873
H	-1.64464933	-2.09745221	-0.36363703	-3.997552481100076	-17.27719137493011	0.8751797816802077
H	0.73250889	-2.0991258	-0.23126275	8.050081119629537	0.5059222802769012	5.407545573702512
15
Properties=species:S:1:pos:R:3:forces:R:3 energy=-170223.841197385
C	2.50466024	-0.01980709	0.00722756	17.980145724167528	-27.336291179483204	-52.75760583105537
C	1.00224177	0.04651213	-0.02947034	-55.12403862716518	-29.78198545485803	22.968151989618473
C	0.19181602	1.2230076	0.1097843	39.430005122767064	-14.167171541437654	-17.45027656028108
C	-1.18943663	1.19253685	0.10835242	-47.4133121197202	59.62161823329741	-0.591343524279404
C	-1.87863224	0.00182733	0.01002733	-8.647770492521126	-11.524511214099174	-6.812028130040622
C	-1.16908094	-1.20182441	-0.10679858	5.046925830506024	-1.967091862781496	-8.425109309828388
C	0.22321435	-1.2051965	-0.06826305	40.018141329651094	18.289246488246288	11.552201647575908
H	3.02324037	0.78970649	-0.6308689	-12.587137860683725	-18.903089082751688	34.11844388837277
H	2.95017564	-0.32841528	0.95793738	0.19194934799703434	26.715223046747877	14.270422389133987
H	2.81608565	-0.99532101	-0.51150572	-12.381727766112247	23.6265561439098	-2.281741725600273
H	0.68957341	2.1797682	0.0767627	6.308027999253853	10.634034958639603	3.99401433684207
H	-1.87589923	2.21436374	0.09381989	46.42399475482586	-55.804396056512765	5.251240266526622
H	-2.96542246	0.05238538	-0.02131287	-2.44944651814046	-6.77407550659392	-1.9017987455993592
H	-1.6324291	-2.15297785	-0.39148133	-7.95248197806595	3.0094959099443903	12.524691475676766
H	0.75089477	-2.19987959	0.05963112	-8.843274746759196	24.362437117732554	-14.459262167062219
15
Properties=species:S:1:pos:R:3:forces:R:3 energy=-170227.62287581337
C	2.5077312	-0.03082936	0.0089442	13.07673097718577	-10.71935149692892	-24.494642924405913
C	0.9852238	0.06156699	-0.06212297	-37.105506220153615	-45.513487690399046	27.042331394422284
C	0.19876456	1.24317128	0.11120819	20.948139105939333	-31.175520104129035	-15.867007582296857
C	-1.18584928	1.19440551	0.10340506	-36.2220321919949	46.83596059376401	7.037092000426003
C	-1.85728738	-0.00010518	0.01248532	-21.60853263380038	-7.97766268074527	-11.972996842401592
C	-1.18198659	-1.20630489	-0.10299144	35.0189091042046	2.5633867999942	-1.7937175586542837
C	0.21789605	-1.2317969	-0.07735053	24.334959021798188	68.26811192270885	7.362385273448114
H	3.03731797	0.79658538	-0.59362765	-13.18324906427388	-20.408134883999338	29.85120994588333
H	2.91230659	-0.25919027	1.02731134	-6.7146096539373765	25.689835910805147	-4.812187990137055
H	2.85591204	-0.99400264	-0.45923781	-11.407189779216033	14.501089073193674	-6.286614861099984
H	0.64634023	2.20275814	0.19744759	17.834829237926062	20.33043138010031	0.4858402800370672
H	-1.86752047	2.15630361	0.15604774	37.848818593073574	-37.811785619089115	0.5278252144556053
H	-2.94161357	0.03828015	-0.0369734	-5.178218130022483	-4.483827106487003	0.17561902980560506
H	-1.64808794	-2.14162978	-0.3139247	-19.431213230265758	-16.53248872607664	5.937545416414774
H	0.76502217	-2.15667591	0.1001925	1.7881648635370186	-3.5665573727117756	-13.192680795896852
15
Properties=species:S:1:pos:R:3:forces:R:3 energy=-170227.3468529245
C	2.46882118	0.02475107	0.11962317	-31.83571367211152	-8.47870186273499	27.176375589601058
C	0.93900166	-0.04264584	-0.05930088	23.252983366344072	34.91431533381659	0.9738415151229493
C	0.20796413	1.19960803	0.05175491	61.13151748514132	0.4867850690358773	-10.265115943847
C	-1.14294012	1.18880348	0.09722861	3.7758525055178813	-47.246855899611276	4.025597480151328
C	-1.87072353	0.02096957	0.11813028	14.153428679886998	-27.69080986284456	-13.116400203205277
C	-1.13432128	-1.17601315	-0.05616097	-67.2514894127113	-5.998683934518745	-23.590506059001633
C	0.23569909	-1.23541055	-0.27951042	-5.373849159989531	16.901032089173434	34.24607218030655
H	2.94479491	0.6751128	-0.56726956	10.808086988650308	24.999610496493176	-21.087549487831957
H	2.69869689	0.38532961	1.15755122	-2.445928820510191	-5.91517356532747	-14.79623362575466
H	2.92913503	-0.93810683	-0.01926561	5.605461774046462	-17.64770087425664	1.2204311780948085
H	0.70901685	2.23433597	0.00864745	-6.5140835841282385	-38.7406612183351	5.581740632187943
H	-1.62521531	2.06189696	0.0644556	-47.37045996072684	85.08120311689642	1.3964988073931819
H	-2.96965547	0.02338507	0.05559353	8.438777386099568	-1.920359589409789	6.996882325721142
H	-1.86241888	-1.99620662	-0.26253386	25.08142655439692	-5.421564042435803	7.725943468196319
H	0.70881288	-2.20697966	-0.33833779	8.543989870093972	-3.3224352559411763	-6.4875778571346725
15
Properties=species:S:1:pos:R:3:forces:R:3 energy=-170230.08790619564
C	2.47765576	0.02622363	0.11762419	-29.188834227824497	-19.65444405751108	33.940237045575195
C	0.94330179	-0.04447397	-0.05458047	19.619882303720455	31.629275071050813	-0.07143203041899485
C	0.20417136	1.2011645	0.04908467	68.66943744503764	3.8091408125606914	-9.39324269632263
C	-1.14581964	1.19383772	0.09243382	-27.503698723095898	-2.1813221947759582	4.72658468840939
C	-1.87189989	0.01325396	0.13066483	12.777543338920022	-13.547454143183426	-18.299104717588204
C	-1.13980862	-1.17787435	-0.06648956	-66.24137653509858	-6.523170113449144	-19.689917755263057
C	0.23584993	-1.23315135	-0.27794315	-0.006894214311057001	-1.5637928257126246	31.85306995350552
H	2.9327243	0.66387467	-0.59202416	13.111552536201753	27.233999116664396	-18.837451073178823
H	2.69922669	0.36131738	1.17151511	-2.119419661345721	-0.11222027719557366	-20.02591368753868
H	2.97978642	-0.93550778	0.01378021	-3.2284228035419744	-10.227128552817954	-1.7237469178602174
H	0.72847499	2.23425418	0.01349425	-11.160291642186756	-41.731742062810675	4.774291243805846
H	-1.65886026	2.11624095	0.05651822	-16.202047347339203	28.292482535985258	3.116688225616796
H	-2.97396184	0.02810944	0.05444168	11.054993986848617	-3.36725426526839	8.049829734889896
H	-1.88735783	-1.98761539	-0.2704949	29.297729502177972	-5.092687674668781	7.157232860117965
H	0.71373553	-2.22900742	-0.33682645	1.119846041837145	13.036318631132401	-5.577124873749945
15
Properties=species:S:1:pos:R:3:forces:R:3 energy=-170221.08031238418
C	2.46094317	-0.02173482	-0.0131805	-33.28975875158716	-7.160099083817982	33.68863833594871
C	0.8960436	0.02595929	-0.13075729	41.8468595091979	-11.094321982375398	58.010491592752714
C	0.18113186	1.20448515	0.20164141	42.04459678557769	40.92416061422839	-9.978959564927932
C	-1.21375826	1.26246822	0.16768863	56.264159410426	-25.640148717486248	-13.873839336104139
C	-1.76343644	0.00891942	-0.07872294	-98.18680778913073	15.152222740480816	12.067784163075798
C	-1.15273793	-1.22312294	-0.09723693	29.062435296442125	-30.065254357394114	8.619734354360565
C	0.25840902	-1.23688393	-0.06015538	-8.975013410880688	2.652691672477228	-50.218089678138334
H	2.94080535	0.27039726	-0.90469356	18.842853611721246	15.243843893529418	-28.81117304054552
H	2.8977404	0.48134328	0.8814247	-11.919004742636812	9.978854318712225	-13.380448489529241
H	2.74222818	-1.046887	0.20467674	1.5203366015317712	-13.894456897820504	-6.980754440244
H	0.79436458	2.18161176	0.38090699	-21.910785864203486	-37.81203907423072	-7.819403915088031
H	-1.65438151	2.24734552	0.18507025	-19.04122084929009	-1.5582613117403898	4.108254132660552
H	-2.87854041	0.044356	-0.14269342	11.679753652904829	-8.90967945463958	-1.0201290649707855
H	-1.65207792	-2.23247111	-0.07610969	-1.4730721152262414	29.1651819419042	-6.1742061242082515
H	0.78280483	-2.18390302	-0.40009746	-6.4653313448461605	23.017305698173043	21.76210107495783
15
Properties=species:S:1:pos:R:3:forces:R:3 energy=-170225.58703664556
C	2.43943945	-0.02853381	-0.06659521	-5.9187611114116265	18.04838964066073	27.930985438658915
C	0.96148423	0.027338	-0.01865291	-27.66176427834627	-16.35621363231906	5.0277981949928625
C	0.21173938	1.18706645	0.27936421	44.468159736827836	40.854190882332894	-15.562058994308856
C	-1.1504663	1.21018356	0.06669307	-30.42016961665596	-26.88601770907238	10.276160977566303
C	-1.86774376	0.0151337	-0.12187503	22.703381537429365	-17.88873287813497	24.824635086054588
C	-1.13416558	-1.18860268	-0.06436183	-53.4359103127781	-11.691074201169165	-17.19587063837418
C	0.25071119	-1.20655632	-0.11237949	19.849942958877577	-6.291852208706514	2.740121628082546
H	2.92854035	0.31429455	-0.94490471	1.825533017419246	8.091665632472942	-35.88488526701258
H	2.82794584	0.68874172	0.67690061	6.515476844988584	-13.62991049690087	9.19389191417134
H	2.69706895	-1.06477137	0.06226911	18.558693407264073	-10.95764404340511	11.553024436264774
H	0.7960657	2.15998154	0.55338663	-24.35196686362079	-35.92753690342476	-12.388069455797389
H	-1.8207179	2.01340598	0.2353098	-0.8856887178907412	36.15933501421322	4.468276644948453
H	-2.95542839	-0.10325303	0.05380642	10.057583034144045	14.151063686482889	-13.045620965452496
H	-1.88564151	-2.0339489	-0.06035114	36.95352300763952	0.6933553068425027	0.7824799950038427
H	0.85599323	-2.16426068	-0.12519464	-18.258032643886654	21.63098191012781	-2.7208689947983014
15
Properties=species:S:1:pos:R:3:forces:R:3 energy=-170226.6546685609
C	2.37688615	0.02324822	-0.04015245	46.150985251621776	8.302660779155222	-48.630147871278126
C	0.90932829	-0.02221088	0.00131307	51.81311506177682	-47.87343052464707	15.606515410288774
C	0.26755204	1.13810875	0.1435761	-88.65195982046916	76.00718456775229	19.694477259230975
C	-1.16019867	1.26045303	0.17204515	16.737414205911683	-43.8496739933789	-0.5469739502033258
C	-1.8245293	0.01525777	-0.05887278	-5.337055258143867	35.67875195207344	-10.49152068225441
C	-1.12325794	-1.18121347	-0.22534385	-12.781325493447834	-32.02017334590624	31.525260260993896
C	0.25757391	-1.2422942	-0.00828377	-50.18345088205055	24.698459552548464	-23.16007957659489
H	2.64864566	0.1438483	-1.17110972	-3.9136582250100824	0.10078567498215936	34.90264667627238
H	2.78555547	0.92722928	0.46093404	0.5618978310266808	-12.060939698693184	-1.522263555748015
H	2.92800437	-0.90224953	0.22160047	-8.139933896394135	6.8498734247848025	8.254966552381575
H	0.73175825	2.06001952	0.44533647	23.116108625918564	8.401020401337515	-6.3568051584730405
H	-1.67048779	2.2085964	0.48354923	8.447846142322247	-20.15067293712971	-12.193665188885877
H	-2.90110943	0.02103064	-0.17133165	-9.091429807075862	-3.221831284602736	3.21764056507702
H	-1.68101881	-2.16332517	-0.2058499	7.199053156477468	24.160689266118585	-7.828459000995738
H	0.69356677	-2.19087439	0.1248829	24.072393107536126	-25.022703834394413	-2.471591739811204
15
Properties=species:S:1:pos:R:3:forces:R:3 energy=-170230.3380265556
C	2.5248455	-0.06517122	0.06984314	-29.8170021053881	15.006154905772657	-3.8095637206167754
C	0.99591856	0.03632047	-0.01395554	-5.289830454420561	-29.902784478013594	10.649574364630816
C	0.19303663	1.15821917	0.1452541	21.639247630292626	35.494759674026824	-4.978721106672293
C	-1.18884385	1.20271851	0.05505245	-50.9510123036237	5.2960661935911615	23.810796528674842
C	-1.92272246	-0.02675727	0.13313819	13.588682604767357	24.630288466558465	-36.80787102385507
C	-1.17759181	-1.16218131	-0.1310597	54.06650025673247	15.888595885490524	5.357327154204061
C	0.26176605	-1.12236772	-0.2198253	-24.07223188448436	-46.15272566340945	-14.5976180041658
H	2.89380296	-0.18473517	-0.93112251	8.512963526524764	-7.729255494166941	-21.823524635491747
H	2.96559002	0.88852338	0.37833074	3.167889046955218	-3.5776610459890894	14.1213249043581
H	2.81355352	-0.96172705	0.63712789	3.440027619737215	9.916716157179808	5.159682961012457
H	0.75846513	2.0706085	0.26944146	-1.5209698194823056	17.24164721777232	-0.14692039063104165
H	-1.79829017	2.18151461	0.03848298	28.17772870526164	-29.813859160429427	4.424039567950406
H	-3.01679805	-0.0999885	0.02450461	7.136487315502179	7.487562777161007	8.690096082169662
H	-1.66883147	-2.06802978	-0.32735007	-15.313506163869228	-34.31808992697291	-3.0414625459971174
H	0.7893508	-2.07259818	-0.54684836	-12.764973974505228	20.532584491428977	12.992839864429534
15
Properties=species:S:1:pos:R:3:forces:R:3 energy=-170218.00940702058
C	2.41451187	-0.00586378	-0.1503353	43.686239599404814	-21.765093274683498	7.506662879269476
C	0.99602077	0.05224232	0.03786025	-78.26623668163639	-92.10019209078499	-20.876624801385173
C	0.22068628	1.14015106	0.35839943	-9.896177290641266	42.941210232808906	1.120851187796916
C	-1.20604638	1.2056578	0.28170968	19.572344436941822	26.95951744142265	5.056826681183945
C	-1.82948215	0.04574391	-0.21117464	8.159354244797392	8.997466520512942	32.02095483852363
C	-1.18223803	-1.20196383	-0.16659219	75.56558013977109	20.16443698330968	-11.906712714463886
C	0.28278479	-1.23091641	-0.12521617	-53.44102397014335	40.313423514747775	12.491582141187513
H	2.76139303	-1.04690512	0.13632342	0.5189681077309092	24.437196012564794	-3.7338159006507676
H	2.77953978	0.16054465	-1.18548649	-4.584710217717111	6.37726772828611	7.829552854237511
H	2.77676789	0.72061077	0.56085506	28.94668890337952	10.017757094407093	2.2937331207553124
H	0.77674774	2.07733554	0.52393363	-5.31692406809947	-1.8202617785009703	5.980546956732491
H	-1.73336323	2.23955481	0.62390409	22.834443861201127	-59.1126629721101	-28.52588245436877
H	-2.82605409	0.14488929	-0.53734854	-37.10141714455684	-5.996300725236567	-0.9719460836698415
H	-1.69304387	-2.14172956	-0.22898742	-12.759379409532688	-10.143399952742318	-8.809335319254947
H	0.77773799	-2.21329795	-0.18622947	2.0822494891005596	10.729635265998787	0.5236066141065768
15
Properties=species:S:1:pos:R:3:forces:R:3 energy=-170225.56741461658
C	2.42813852	-0.0253631	-0.08128858	-0.596422321511259	16.942732254667582	-6.8800636422511605
C	0.98060973	0.03144482	0.15116087	-50.83895655421098	-31.33723860001887	-31.57744509950177
C	0.25507826	1.21719	0.25336854	-26.34816040811181	-19.003032427564865	-9.315924072590935
C	-1.17323604	1.18029525	0.21125282	70.00345694694674	-67.63317257033336	8.509302439061017
C	-1.85370911	-0.02616682	0.06000741	-20.641857397431195	6.060586240536318	-41.455510009217896
C	-1.1641263	-1.17417737	-0.39134168	20.63050966702724	-6.103326655129963	36.08823489357205
C	0.2278554	-1.18209423	-0.15523457	-6.273430400366941	24.205524663430214	13.600273772973626
H	2.75714245	-0.97789917	0.22241534	23.250935253687338	-31.64653412637329	14.69973577810493
H	2.64389239	0.03615243	-1.15519165	0.41924505658330974	3.841497741599861	-2.910165544086012
H	2.94140141	0.77383868	0.42611595	13.601583337339063	8.861709560959458	7.896544425526196
H	0.79275334	2.14617578	0.26954923	4.039581193542086	15.797025073000569	4.696166431626567
H	-1.68667751	2.03002703	0.37275201	-44.31127484709316	70.91093391036787	13.578526400950151
H	-2.95841174	0.05246995	0.0332167	9.808281798352063	-7.7239544274497325	-0.24748052172483934
H	-1.5996306	-2.14478582	-0.71287545	-5.264218812525158	16.922899163989687	8.807206256503658
H	0.67714269	-2.16655701	-0.02634984	12.520727487772579	-0.0956498016814715	-15.489401508945646
15
Properties=species:S:1:pos:R:3:forces:R:3 energy=-170225.12341875426
C	2.42882286	-0.02671516	-0.08077663	6.065364957645106	25.587322110841786	0.5028790616012759
C	0.98470403	0.02925365	0.1522639	-56.25818367912491	-25.379038783330788	-31.883090245988335
C	0.25328172	1.21629309	0.25330374	-16.660563639676237	-12.60060289420922	-10.477411871078404
C	-1.17443069	1.17841726	0.20966244	70.93550771640005	-64.5820608701191	9.446505176490712
C	-1.85565569	-0.02632848	0.06363848	-29.501004859418224	4.147304530419699	-43.29139666711814
C	-1.16380351	-1.17596428	-0.39309615	13.62701417863849	-5.338060073041481	36.57705646763809
C	0.22833133	-1.17754952	-0.15800215	-5.579659953338553	16.556897916712707	14.067718929944371
H	2.75403771	-0.97715917	0.23429336	24.301012244307003	-31.10784851734233	13.648577354193407
H	2.65085095	0.04769119	-1.1488407	0.3816291555564774	1.7948072981531384	-5.694024630943667
H	2.94832157	0.78782347	0.42484131	8.055585328903854	0.6061695040379087	4.4821350964938675
H	0.80306726	2.15576606	0.25649046	-2.7473262618203314	5.707048897161497	5.132608035463557
H	-1.67176949	2.03759005	0.37319681	-45.013483306517635	70.30093940604696	13.32792772613242
H	-2.97610836	0.05486451	0.034966	20.379956856581753	-8.575939023779481	0.2159562085128906
H	-1.62331795	-2.1463901	-0.71030942	0.11651014505914993	20.92610706371877	10.056847449486188
H	0.67490922	-2.16641251	-0.02390942	11.897641116804236	1.9569534347298765	-16.112288090828052
15
Properties=species:S:1:pos:R:3:forces:R:3 energy=-170217.27188836056
C	2.443216	-0.02979645	-0.0701396	51.32106949712115	5.7541935503357555	37.3198675761168
C	1.00033393	0.00490435	0.15133967	-64.16373552168334	21.889978900069725	-29.394548909350803
C	0.23779863	1.20736926	0.24802056	34.468202415056396	5.0157187370999	-18.785349900378556
C	-1.16770882	1.15382299	0.20118618	-1.386445784813425	77.73229171790211	34.74737002296101
C	-1.88634153	-0.02817298	0.08104674	-7.27702431400913	-9.956173317801035	-48.34532048422874
C	-1.16112384	-1.19156538	-0.39546275	-26.029817048457268	40.46727687854569	51.488334084914115
C	0.23131364	-1.13618213	-0.17868896	-4.785185444721667	-44.69167992164155	9.890899278572569
H	2.81016506	-1.0319964	0.36576228	3.4896131314182672	31.69925729194922	-20.681282833143793
H	2.7151712	0.14147501	-1.12487731	-3.4788463043460864	-15.845569900028936	-1.999035796843685
H	3.00171751	0.85838188	0.41076904	-16.97080447442998	-29.338004844933227	-1.5007001794485098
H	0.83613784	2.19368488	0.1647397	-27.49981174687924	-29.94965983002548	11.75263258103312
H	-1.64730094	2.23981747	0.40158495	11.254592127197066	-60.18039666010466	-11.524202904443307
H	-3.00650902	0.03882965	0.05501085	21.41307185242016	-6.699197124086409	1.3746632765815157
H	-1.80096935	-2.06678899	-0.64380307	22.913282815770806	3.9049066621121242	2.967268919524008
H	0.69640755	-2.13841422	-0.07296994	6.731838800356043	10.197057860607075	-17.31059473186564
15
Properties=species:S:1:pos:R:3:forces:R:3 energy=-170210.63686949812
C	2.32907731	-0.01556599	0.12684536	49.07866505715543	-14.771727210486473	-17.780204548647877
C	0.90726073	0.01003038	-0.19171869	2.065622714749028	30.512655430676038	42.62766691392592
C	0.26736156	1.17216314	0.24461906	-16.168304514811194	-22.931693123389927	-42.014211374185635
C	-1.10618503	1.15924712	0.26481229	-21.85331270645181	89.91398518334029	9.9952489040742
C	-1.79045108	0.0232252	0.03126128	16.209666813494756	-55.5484547505216	-1.2434343103297782
C	-1.11818279	-1.20793602	-0.24240438	-59.767446219908344	30.598917810892953	29.505345831145736
C	0.20326974	-1.15540295	-0.32750673	57.84522795889448	-17.935658292607	-32.14244060021847
H	2.50572184	-0.87259975	0.90695745	9.477477612320387	37.34930797285954	-32.92445030741854
H	2.95643055	-0.02647562	-0.82335756	-4.593394591245783	-21.788863824260016	21.130571066194406
H	2.56690455	0.99903671	0.45694783	9.79760019814683	-4.544682382857029	20.510721636689038
H	0.81733211	2.06463003	0.29542439	18.832710010075246	30.490338311459706	14.054092439640526
H	-1.69750926	2.15673826	0.49317092	25.130156153924393	-44.67588726834078	-6.525836679918847
H	-2.77198751	0.06407797	0.334406	-62.51715290300577	-8.50810964298258	3.704149298309211
H	-1.49585692	-2.17612447	0.00600374	-27.06105593853786	-14.96746384707303	-12.423256455574302
H	0.78738747	-2.03841703	-0.54763818	3.5235403552000983	-13.192664366710256	3.52603818631446
15
Properties=species:S:1:pos:R:3:forces:R:3 energy=-170212.27691110296
C	2.31723268	-0.02236475	0.12120094	55.55399392011676	29.25753461334079	-42.2119410246216
C	0.91749994	0.02324229	-0.15614165	-2.454549227348692	8.607129762643773	19.654560517458137
C	0.29059129	1.18319608	0.21609923	-47.06051026919692	33.48809078477961	-20.125875784732866
C	-1.10773456	1.18359604	0.28580925	40.570692279055784	-80.74983184138179	-35.77131676982874
C	-1.8056095	-0.01351573	0.02795602	-30.869370650520636	21.646991248807115	41.16307280181853
C	-1.11072187	-1.21598882	-0.25881513	-90.23280314713647	8.376836508882514	38.47327975499679
C	0.21408389	-1.1400687	-0.3255606	38.22216790246588	-47.78789837028953	-32.3389124790614
H	2.492855	-0.74475415	0.8565561	20.06138551719797	-34.041429224396786	24.652503277406684
H	2.92510039	-0.12063396	-0.79395353	4.871692559414275	-16.04146082766065	2.845895770153642
H	2.64306792	0.93652334	0.49444407	5.665586032427112	11.858447511911939	11.558061342256215
H	0.79767778	2.15159662	0.25949917	8.073214441885339	-6.0642063961248915	10.05883205765656
H	-1.68833681	1.98996148	0.45346506	-38.050505631705626	71.00684693672571	19.816721607137744
H	-2.86487099	0.17029565	0.42609949	20.75420760108249	-30.226408216058626	-26.83457429161387
H	-1.53947813	-2.22385093	-0.05065161	-5.870664126203138	16.442723003088037	-19.27028416641705
H	0.62605648	-2.13526293	-0.57883319	20.76546279846579	14.226634505732852	8.329977387391548
15
Properties=species:S:1:pos:R:3:forces:R:3 energy=-170224.46173516393
C	2.33365571	-0.01855688	0.10399278	69.57432428309832	16.417386312930066	38.78648199364804
C	0.92389883	0.03626855	-0.12197023	1.5679703443439186	-20.770712390473914	3.7361680057232913
C	0.2869052	1.20167869	0.18675399	-24.60732071005496	69.0714872780401	-0.47095904007361655
C	-1.0999784	1.17988094	0.28849803	-49.326317739305765	6.946924860316095	-13.706791661423614
C	-1.82626106	-0.03286232	0.04130286	-2.141949992117205	37.45803398907678	32.33139699852254
C	-1.1414874	-1.21640007	-0.2546165	-19.640570033296893	19.397756908720428	17.76939637130954
C	0.23715144	-1.14792236	-0.3376791	-25.118802680048493	-26.224141448784298	-13.408534126306513
H	2.57090729	-0.764353	0.88976946	-0.7213688438366668	-1.7031838649045852	-6.581505685685878
H	2.92746027	-0.2699359	-0.75745917	12.475608441266097	-2.9547282300143056	-15.390145241153183
H	2.72415278	0.94003438	0.57530313	-6.537296569741572	-17.30806055038745	-18.22212387212107
H	0.84052493	2.21765142	0.28641263	-15.370976835520683	-42.27384270449279	1.7826010842421733
H	-1.78073441	2.09348191	0.49598783	33.83507949084176	-27.87193968286906	-3.760700307889463
H	-2.87626122	0.10425121	0.3736504	5.7316560141151225	-19.54561530978327	-15.993153914648573
H	-1.61256148	-2.19628175	-0.18390864	-6.021741966226386	0.6932336080728484	-10.702813188678574
H	0.61595166	-2.14852015	-0.56229341	26.30170679648375	8.667401224553057	3.830682584535023
15
Properties=species:S:1:pos:R:3:forces:R:3 energy=-170235.41577495378
C	2.44197765	-0.0350278	-0.01272064	13.326577730855753	-0.9320207727283661	25.59737796958798
C	0.93756028	0.03251583	0.03854424	44.49099508347825	-29.51992448191848	-14.584615861563421
C	0.27626121	1.18454654	0.29088658	-80.44505712343283	0.21046800294171406	-4.000747497115195
C	-1.15149992	1.15123168	0.24523642	-20.267806805454377	43.70219273464474	9.693443698502428
C	-1.90555237	-0.00956797	-0.01369138	67.9895488323648	2.9711310081668483	2.479057122120161
C	-1.14591352	-1.18416735	-0.27385439	-19.11615012467455	5.663854693858994	0.5987702029554923
C	0.24323461	-1.13652617	-0.28399281	-23.16641355964144	-4.382413841174853	13.470930979864542
H	2.88011472	-0.36033132	1.00450724	-10.643262319103082	3.659230214576774	-31.738562269945017
H	2.72962434	-0.72375325	-0.82682053	6.324558208432002	1.5979017756188785	9.077251461709142
H	2.87019957	0.95804883	-0.21876841	0.787650330983342	-2.008370678088611	-1.0201888970963844
H	0.68390975	2.13177129	0.49836109	24.8999607683475	24.950929288089522	6.100875542429749
H	-1.70673198	2.169878	0.43701891	20.963289945459614	-44.170924345151356	-6.789691794359638
H	-2.95010739	0.02917015	0.06950472	-35.9558430282111	-3.8142647361730266	-2.819655468051025
H	-1.63115737	-2.15298282	-0.46060416	-0.9469765265507578	6.412356239442987	0.6394125361507194
H	0.74588992	-2.08641422	-0.38819177	11.75892858714666	-4.340145102105729	-6.703657725189578
15
Properties=species:S:1:pos:R:3:forces:R:3 energy=-170217.8529902697
C	2.42737806	0.05145996	-0.08976332	-24.708506053231908	-2.169911655825849	40.96231110326816
C	0.86809743	-0.02622033	-0.04044856	53.97130333278801	7.115955599748883	13.597951108373541
C	0.26573399	1.17778815	0.40722427	-80.23868080468297	-54.57003743599046	-27.703480200989148
C	-1.15920394	1.25636866	0.31595761	-4.176280523681324	-13.64038814855349	-16.100576658199575
C	-1.75632147	0.03617596	-0.16201874	11.881858977036208	12.098418746323096	35.60442344138514
C	-1.17660355	-1.24458915	-0.20376549	3.5037967800089813	27.120390620678553	-15.816835724416126
C	0.23764786	-1.27502685	-0.20729604	-18.649158252749945	25.129520580232736	-14.139201436213456
H	2.67985683	0.03565312	1.01527264	9.113480216192782	-4.368425019115546	-21.959239140319983
H	2.90427043	-0.78523758	-0.59886606	1.1886528248777455	-4.180288969860798	-1.6195603859422114
H	2.81252657	1.00294434	-0.46244997	-2.5710752081847383	2.3201057898541704	-6.748807824698619
H	0.81355448	1.97581596	0.74898488	36.40345067125458	45.266489497330596	15.319673665578465
H	-1.83992828	2.19447282	0.51245278	35.87428755749752	-39.56264382335916	-8.995565283926554
H	-2.76059836	-0.02029595	-0.44121616	-46.93963640828496	12.200914583483165	-1.6572424640360017
H	-1.94399399	-2.01998332	-0.40647786	25.145920510810775	-4.161829508372865	0.3500927655973556
H	0.82902307	-2.09567207	-0.60399954	0.20058638034920975	-8.59827085657313	8.906057034539186
15
Properties=species:S:1:pos:R:3:forces:R:3 energy=-170226.08951177503
C	2.50162907	-0.0169473	-0.04436563	-4.071198194319087	-40.49389284937907	24.50635907344749
C	0.91651463	-0.02358762	0.08004618	46.63085281860354	50.92647647925836	0.840663309520801
C	0.23199332	1.20941167	0.3438112	-14.124770403119008	-14.7721444523273	-16.93732404299159