15
Properties=species:S:1:pos:R:3:forces:R:3 energy=-170213.72492975355
C	2.46280911	-0.04262363	-0.00497146	-21.737254603246246	-16.301843603264818	-4.545031655073578
C	0.94372815	0.00353205	0.04725721	13.195766662890195	65.86135533253407	0.9684443353347982
C	0.20976456	1.26013633	0.04450187	23.897759376105327	-36.57911357405201	-22.465027713984316
C	-1.20329255	1.16128488	-0.00383001	131.10468772473902	67.13527391602824	15.802858023286776
C	-1.81355686	0.04230963	0.14746758	-85.77201909867517	-171.58394363333662	-43.55246893875047
C	-1.16606788	-1.22019261	-0.17369683	32.750635843560154	38.188528554186604	61.8568120135025
C	0.25783323	-1.1751883	0.00919079	-60.822324998978914	-47.6342949322801	-37.374505798155816
H	2.89323768	0.77190781	0.53799066	11.37468084327005	10.146590311902068	22.713235132946355
H	2.70193102	-1.05265773	0.38582544	15.511913404639607	13.176808575823825	-2.744357137696872
H	2.87124584	0.10494468	-1.01497516	-5.166211139778997	-8.988038723098633	-5.344078355307065
H	0.80266869	2.19020157	-0.1581276	-17.442120588028082	-13.727681933288038	8.583570684126657
H	-1.76046385	1.97279118	-0.19019771	-45.75028918124832	80.80341724221132	-5.217916533353724
H	-2.9128483	0.03667905	0.07633851	2.792380478434014	0.3353532485206085	4.816067744238288
H	-1.63129766	-2.20974656	-0.26351705	-6.9703185355720745	10.449061824830956	0.7120583361899804
H	0.71506303	-2.16157337	-0.15812706	13.032713811889437	8.718527393282534	5.79033986269633
15
Properties=species:S:1:pos:R:3:forces:R:3 energy=-170231.73449999516
C	2.50732854	-0.04460707	-0.02412752	-15.517779876445765	-12.914034323065204	10.912398153981218
C	0.98358332	0.04619592	0.05704	-19.738829608103348	-46.14122571102259	-17.30368994802053
C	0.22819686	1.22685751	0.03720032	-4.239950648743932	32.56060619627674	1.5328641502100044
C	-1.17863412	1.25952298	0.06500295	10.503498890733564	-131.4460633646267	-12.346622073928195
C	-1.92781111	-0.06096168	-0.01160568	36.048897495828776	83.50861957059534	12.061787385405301
C	-1.16577417	-1.21882953	-0.08495255	-11.725170334477564	-7.609111404354242	8.4674658494638
C	0.22832154	-1.19215252	-0.04685693	29.118490478847022	33.45722537801928	17.481247734116472
H	2.9823672	0.75526652	0.51422046	7.950626978428076	21.080755666877113	0.38269407239276454
H	2.93132062	-0.94561123	0.46260086	-11.537667625106403	-1.0522400189510237	-3.248134052944656
H	2.82900148	-0.09389601	-1.06644088	3.5064115370077293	6.36886764877671	-4.80464778157882
H	0.70933901	2.23972056	0.00020679	-0.25544668545655935	-19.86017570598502	3.4345047247662635
H	-1.6837417	2.15078449	0.04163406	-31.458989903832396	52.11043753936245	2.014531666793714
H	-3.02144175	-0.00995443	0.12014178	9.069726099069886	-7.80961901426426	-7.3245016920935475
H	-1.69213196	-2.18046186	-0.06452895	3.7470220526991502	0.4183254177022503	-2.7533318609257695
H	0.81556329	-2.10561908	0.09177057	-5.470838850448538	-2.6723678753406857	-8.506566327638014
15
Properties=species:S:1:pos:R:3:forces:R:3 energy=-170219.03527108612
C	2.49163629	-0.01050763	-0.03191511	3.365589054835549	20.942906143714648	-13.208653759083095
C	0.99724039	0.03529031	-0.0537617	-41.78893232576863	-57.710681229006376	10.642977579775609
C	0.20303355	1.17135423	0.06902549	38.25869089455778	5.030721326098874	22.16208866227325
C	-1.16217972	1.14389554	0.09217594	-56.163860012572	86.90227508220158	18.477806380619903
C	-1.88090704	0.01635581	-0.17775283	-23.57682755329096	-22.63001642682058	26.253461465628558
C	-1.16763075	-1.14247787	0.0832915	1.8969217524193323	-45.83486946025475	-43.658867254163546
C	0.21958172	-1.19137579	-0.0193067	27.63977530197377	31.69828097811065	1.6520010980546178
H	2.88350384	1.00882117	0.33331026	-2.5959139908867965	-32.26760162507512	-17.84403651751145
H	2.88768979	-0.82687777	0.60215939	-4.010219773853243	7.270463276429477	-1.2975346864231316
H	2.75953539	-0.2709778	-1.09771961	11.343456165734038	13.28069459997628	18.411461431009233
H	0.75108196	2.02374529	0.41433332	2.553039475836759	25.191160868195407	-1.2213205310702273
H	-1.82242653	2.06206046	0.52625765	40.86928369269444	-36.038114185634655	-35.79856369006064
H	-2.97408889	0.04102714	-0.3253707	8.90426439860683	-2.6036315432887758	8.176945359321078
H	-1.62704077	-2.13970613	0.11087656	-8.610084325606842	6.059048115926597	-1.184805665018513
H	0.70740357	-2.16542495	-0.10742672	1.914817245319933	0.7093640794267376	8.437040126648478
15
Properties=species:S:1:pos:R:3:forces:R:3 energy=-170220.2015334863
C	2.44136372	0.01977427	-0.10271873	43.039284422885615	28.99397481897681	15.804936761850191
C	0.94164454	-0.04382287	-0.1035692	26.315766105762133	73.80002189980048	32.309457270200866
C	0.25349101	1.18358499	0.21748721	-42.34325337990488	-30.494014418007694	-35.60039134284893
C	-1.16256204	1.19560229	0.08366398	-5.489347750939711	61.94037459636865	-8.162250289641781
C	-1.86088428	0.0157902	-0.140922	-3.123919043676682	-0.8836814499257678	5.587347014591873
C	-1.16618364	-1.21152762	0.00019129	-9.083832756814859	23.973844371423414	2.451031548511155
C	0.24995939	-1.20197449	0.0358224	-53.75631731385044	-47.92070453966755	-15.460434854417473
H	2.82906914	1.08564519	0.14821079	-17.98028150029897	-31.73230156874029	-7.9755491733355015
H	2.76495109	-0.58761535	0.76265542	7.507365617683934	-1.4830352385785868	-5.9118318973127835
H	3.09209205	-0.26080815	-0.98215957	-25.925488610413463	-3.9441630462110235	8.655199821652388
H	0.68414326	2.15012405	0.35984357	22.757278373199075	10.496257368432785	0.4473096747783694
H	-1.76130315	2.27900028	0.02980749	36.507010365238756	-64.89437874523865	7.791754403271682
H	-2.92263292	0.15072106	-0.40114983	3.986993202542471	-15.691872985407025	7.925016921706022
H	-1.76444704	-2.10810716	0.16868122	6.187639429505186	-5.698104652451751	-8.609958654135474
H	0.6908037	-2.20046198	0.03451697	11.401102839081654	3.537783589226431	0.7483627951293567
15
Properties=species:S:1:pos:R:3:forces:R:3 energy=-170225.38013718673
C	2.45175247	0.04500811	-0.10565651	-14.268087781257039	-37.860976638641866	10.562939628599475
C	0.92510602	-0.02364305	-0.07422729	13.756924503639587	18.90450756497409	36.72485319052496
C	0.2493484	1.18502003	0.24632998	12.284448398872867	1.505022732969266	-46.33284398250811
C	-1.15444292	1.23213684	0.06316254	45.852091860739044	-78.3924136749676	9.008149185844497
C	-1.85185261	0.03355881	-0.108421	8.90552989931526	-37.55524919404662	1.217571921395464
C	-1.17686396	-1.23635278	-0.04062408	-7.256949948650924	16.272650937990996	13.725452844661666
C	0.21626284	-1.2401922	0.03433451	8.39985628158213	2.0628632728911747	-14.277440249148128
H	2.74273912	1.0554237	-0.02449555	12.310319225724038	33.2946167127986	10.513032757595157
H	2.80946189	-0.54889895	0.7587475	5.914856760696065	7.587650727881914	-2.4791057890716677
H	3.01578925	-0.32447998	-0.97150848	-13.004538036654088	-8.311940425061227	-7.872472485382103
H	0.87674352	2.13511354	0.27139037	-21.671111159710815	-23.16225359599769	2.622507457335872
H	-1.53411769	2.1483706	-0.09588606	-46.175992074058904	75.5417183097187	-2.757845911284415
H	-2.9142555	-0.10464398	-0.29453849	-6.1074827795227815	18.232757871273225	0.7745865452443539
H	-1.78229114	-2.17144345	0.03893291	11.77427916608704	14.948813541802725	-4.941127780100605
H	0.8456799	-2.13505373	0.1405387	-10.714144316801441	-3.067768143585683	-6.488257333706508
15
Properties=species:S:1:pos:R:3:forces:R:3 energy=-170228.2799906371
C	2.42604224	0.06101532	-0.08248215	23.45977326039079	-4.103026695299645	-30.4893156824555
C	0.94296461	-0.05754864	0.17464697	9.378810712574385	60.18776590937157	-22.115245725078243
C	0.25881998	1.20446958	0.11701957	-27.887231848434837	-41.42916931457326	7.503196318870428
C	-1.13643208	1.20859602	0.00715672	-16.279678719403485	53.02643651652427	20.91743187036086
C	-1.83516737	0.01550329	-0.02317974	-12.297216080080755	-8.793477170070739	-9.13044625897284
C	-1.17857221	-1.23235823	-0.10737886	7.164336229547468	39.915643910172896	3.860413965178744
C	0.23367922	-1.23135689	-0.01349741	-35.75047649967231	-26.987326122655585	5.2850617517634495
H	2.81730492	1.09762212	-0.38491299	-20.352550197042373	-25.112893057671297	14.36540104539586
H	3.12266307	-0.32829811	0.6772888	-5.189745790483015	-3.2368407640281793	0.8648925338292647
H	2.54163037	-0.54871369	-1.02525124	11.735958334376383	7.295335116133161	16.657595571039778
H	0.76187663	2.13556111	0.21045876	18.32233269003217	16.702751268691678	-0.69789891300583
H	-1.78101432	2.21829106	0.07367086	36.99075402190099	-48.17376586317244	-6.15161037031373
H	-2.91553409	0.15974316	-0.01738518	-4.429373249059214	-15.025930776797482	-4.161309015063584
H	-1.75834338	-2.11414667	-0.33569517	-0.32441225884519387	-10.883494513211748	5.201811323460837
H	0.65124208	-2.2413711	-0.05882099	15.458719394199132	6.617991556586663	-1.9099784150093728
15
Properties=species:S:1:pos:R:3:forces:R:3 energy=-170235.51019783175
C	2.50110097	-0.03200097	-0.02477383	-7.119930665980759	-6.539910706841031	6.9909062872678716
C	0.99061183	0.0023475	0.05624757	-4.134164277879805	42.781130780464586	6.218714905646283
C	0.21352069	1.18238651	0.09012687	-4.666461251449798	7.046393494630866	-6.783056587411074
C	-1.2117129	1.2051745	0.11605087	45.98035128595919	-46.25642064166952	-9.727732661383007
C	-1.92306074	-0.00414963	0.00094071	23.545012077058836	-4.436325331921724	3.2195301242965466
C	-1.14670348	-1.19062316	-0.12259524	-10.066166690964959	35.55078910753917	4.029811506260272
C	0.25768652	-1.1438343	-0.04204823	-40.168862652835344	-33.83653970527922	-5.254254771980861
H	2.98025773	0.81543986	-0.51329125	-4.199788244925198	11.204286162318803	0.6813370327553193
H	3.0163289	-0.21305612	0.94456897	-7.816662292050185	1.4567481920077192	-6.800857270766921
H	2.67239699	-0.87373122	-0.67759801	15.69891294246259	-14.910958667506044	-5.558798008219477
H	0.75171397	2.11561964	-0.09075626	-2.2638303728416846	5.336779681977332	9.681931033413019
H	-1.66835744	2.13780553	0.02011105	-23.579199521206498	36.684253982190945	3.1228887082611094
H	-3.01684304	0.00479156	-0.01624445	2.837706680437805	-3.8770813370906256	-2.9724524166635047
H	-1.64007782	-2.10759262	-0.39806681	-3.607662490500277	-12.710676797994303	4.947686605474502
H	0.7005955	-2.10807088	-0.14919418	19.56074547471593	-17.49246821282709	-1.7956544869500866
15
Properties=species:S:1:pos:R:3:forces:R:3 energy=-170223.8961627102
C	2.41820368	-0.03087297	0.05134931	-26.618015802714496	-12.416256606837212	46.77246916460391
C	0.92042035	0.00530762	-0.14439256	24.745014647989084	57.71250298757106	17.06277510483816
C	0.24360805	1.25340584	0.08570605	42.45044684789325	-7.8905748870112005	10.753580658773236
C	-1.13853099	1.23429613	0.12763337	15.709245322463591	-75.60675100906798	-20.607028248576817
C	-1.84657561	-0.02807172	-0.04206158	8.500842781732347	13.559363431684703	22.070042888040575
C	-1.14767899	-1.26777944	-0.05825726	-43.19626645423443	41.24602615525354	12.593055268197261
C	0.23504214	-1.14670831	-0.13574961	-14.01028394639972	-77.69972310788629	-16.73297309917531
H	2.90012242	0.71794035	-0.49644023	23.147834188343886	36.37793073233522	-15.407634847748119
H	2.53744308	0.07778571	1.17381958	8.609679705840332	7.424509418410437	-22.203152072121398
H	2.90930145	-0.9580692	-0.16737242	1.2075948105229595	-21.91036346027993	-10.139784906143662
H	0.95499975	2.10773904	0.42825449	-37.3625081878463	-22.144053754294983	-18.702017727849885
H	-1.64683402	2.08100058	0.39921661	-36.54206570043181	51.15084498186967	10.085016160015158
H	-2.94564613	-0.0077436	0.07773557	9.826290205128691	-0.9441385071725145	-2.838065534117891
H	-1.75266345	-2.17390698	0.22108647	21.28515531840146	11.382551646000454	-19.003048833035965
H	0.80299856	-2.07683724	-0.25603931	2.247036263311467	-0.24186802057481477	6.296766024300653
15
Properties=species:S:1:pos:R:3:forces:R:3 energy=-170228.08177556054
C	2.49224972	0.02692663	0.11689173	-8.832091526202358	-24.692672734921146	10.652901912855922
C	0.95353388	-0.04496473	-0.04542266	8.641222312469504	20.4222200983861	-2.778909413498859
C	0.20375363	1.20443319	0.04296283	57.045630704621075	-10.279506545255993	-5.92478850757059
C	-1.15495176	1.20455894	0.08359829	-55.68522809036927	48.19701415440991	6.990607033395352
C	-1.87290021	-0.00269852	0.15307598	12.313153517876977	14.610052061122584	-27.01106871464477
C	-1.15698371	-1.18210443	-0.08851296	-41.26030465684395	-0.8570755943748356	-10.262012805605721
C	0.23620205	-1.22929767	-0.27168115	1.041732046779748	-19.022842715511395	27.37421292468984
H	2.92346773	0.671825	-0.65808143	3.7947238163632036	8.405578938951965	8.632271063247188
H	2.69819179	0.31719928	1.17452753	0.8401139010933899	13.725502377667722	-15.250516261484181
H	3.0706421	-0.9389338	0.07467133	-21.101314849299577	7.306945382002715	-9.045149428365013
H	0.75290447	2.18580346	0.02832875	-7.179100030545033	-21.937827055399175	2.399923033951316
H	-1.73404045	2.23839593	0.04543604	25.740416319168144	-47.12418489958614	5.339717259900512
H	-2.96920932	0.03269228	0.06235912	7.112237469432446	-5.579755668398771	9.131556284111419
H	-1.90051028	-1.97835328	-0.27788088	24.31292120892096	-12.636778202953671	3.664612981470141
H	0.72267325	-2.25162064	-0.34035921	-6.784112143465093	29.463330403860077	-3.9133573624525506
15
Properties=species:S:1:pos:R:3:forces:R:3 energy=-170220.90738091752
C	2.51077536	0.04179685	0.10391035	-21.66182911817343	-25.710492485300335	24.111040162777535
C	0.9713124	-0.01448334	0.01776765	11.974265940064383	19.868595575941285	-3.765203814679467
C	0.23804806	1.15983594	-0.00425264	33.757273573652	61.13276904731541	1.5610221040216556
C	-1.13130691	1.15475712	0.091017	-48.61270077055595	30.78044017723025	21.647527926943344
C	-1.91337155	0.01127836	0.11752554	26.2939288840953	-36.74127051259496	1.6693464460590648
C	-1.17142756	-1.19554243	-0.24995831	-92.47452460743106	6.746113784206608	42.93291613307027
C	0.16647077	-1.16164408	-0.13252245	79.37137129845098	-47.83817074989711	-32.681631834713954
H	2.93704548	0.48313894	-0.76396488	7.219237416889033	24.038724615759477	-21.84671488016279
H	2.94159322	0.52344956	1.03517583	-14.844164506326472	-10.008604105939627	-19.413779080819687
H	2.87121824	-0.98439364	0.01391526	5.71818714491005	-8.215674147047231	10.7350636882321
H	0.70318312	2.23413414	0.0079074	-8.058434057632168	-47.05947143901238	0.5681795748582967
H	-1.6285999	2.12204934	0.34327093	6.955411022604107	-12.011407427149045	-6.478754975820972
H	-2.86385683	-0.00324041	0.70064279	4.669200736441067	-1.1291765544645533	-28.237641584114833
H	-1.72149708	-2.18902297	-0.2797009	15.781854395861336	25.745701479105367	-4.261664603010288
H	0.68731852	-2.13724021	-0.38312579	-6.089077352849271	20.40192274184681	13.460294737359595
15
Properties=species:S:1:pos:R:3:forces:R:3 energy=-170227.19612159196
C	2.42666312	-0.02777598	0.05423944	42.001184809283245	15.603552333135406	-4.427867770092892
C	0.96809364	0.01171812	-0.00355121	-26.45356373675976	-8.211172355657883	-23.377937510212078
C	0.25731797	1.23413001	0.00921758	-39.348631554386934	-53.40930973753386	21.390219143559122
C	-1.14268717	1.15470604	0.19719797	-21.365361410227102	91.95966001180639	-2.0222729001829225
C	-1.88543064	-0.00956347	0.04068594	-2.4091782304397666	-6.680705428836473	-7.320783909166154
C	-1.19495911	-1.18888608	-0.1377055	66.13056161572896	10.98188423416019	-10.97889073803743
C	0.26521011	-1.18725989	-0.17130349	-43.509686942212724	-5.679779363146847	30.52152438128808
H	2.89991965	0.55252844	-0.80111957	-7.623579482251298	-23.48547361369413	7.340811142160096
H	2.75827599	0.61946109	0.88914089	3.1206483201026454	-12.814123476039564	6.33317305299147
H	2.80664219	-1.08826312	0.15838038	-0.7367911098380313	26.919992970829412	-4.5666086653295395
H	0.80959976	2.12648375	0.00860224	11.773442514571522	35.04392691407778	4.2730428963378495
H	-1.75713126	2.19210847	0.40451059	34.96557698707568	-55.61462395396953	-15.129807129391505
H	-2.97654064	-0.03076118	-0.09560201	5.762971338702443	6.981313215237077	11.293151592981133
H	-1.7104621	-2.07350398	-0.38513109	-15.37263494637201	-30.19318724923203	-1.4865437660940048
H	0.81360198	-2.14277187	-0.0443833	-6.9349581729768515	8.598045498864032	-11.84120982081115
15
Properties=species:S:1:pos:R:3:forces:R:3 energy=-170219.15346659938
C	2.44288846	-0.02788116	0.02819369	15.24048917577317	-20.839482625021066	-22.483411785520534
C	0.91026816	0.00175415	-0.09671697	26.49495433078949	13.575234376940509	28.83794631985577
C	0.21991007	1.22658307	0.10109433	-22.536114519845047	-38.98390767293531	4.305670528661663
C	-1.17391249	1.27008693	0.22034201	-45.932472429288914	-4.255940204049351	-31.065536059318777
C	-1.8387119	-0.00113428	-0.01414155	17.15617468519281	11.33590341435712	-5.86780907939529
C	-1.11243976	-1.25498775	-0.11281305	-52.15557705537974	75.53722941147082	5.785758388678723
C	0.2264736	-1.20975616	-0.10859048	56.77087983635181	-8.978996726052847	-11.15621209149877
H	2.94099556	0.30189142	-0.94691612	-8.972229977975697	6.176578935346512	29.348764942677274
H	2.75766697	0.50894628	0.94354038	3.22811221708455	7.402308601551275	-14.038242514095822
H	2.90675372	-1.06675521	0.16488238	-23.73441645466942	19.944720313489853	-2.672949340833198
H	0.74191844	2.11443021	0.21417561	31.514661976932057	41.32586172352874	3.498880954675615
H	-1.84516119	2.32135524	0.24249763	45.301123266795926	-66.37964918799752	1.4617599265311048
H	-2.86529674	0.06634431	-0.37325863	-8.381121411373591	-8.071023367603319	15.048903334076115
H	-1.5914652	-2.17679743	-0.21423222	-27.29529031921091	-32.54104461126283	-5.991209715530089
H	0.83361958	-2.12380929	-0.23693904	-6.699173321176467	4.752207618237503	4.987686191035969
15
Properties=species:S:1:pos:R:3:forces:R:3 energy=-170215.91127110523
C	2.51302975	-0.05665505	0.02942217	-9.296337821325928	-12.994182641005617	40.21526741502389
C	1.04274201	-0.00950459	-0.07416059	-86.01568002355918	67.1833140583197	43.03247126224798
C	0.24424477	1.23389652	0.19173529	-23.188451097385865	-68.86297782736477	-40.843900634354135
C	-1.22267174	1.1924368	0.09467233	35.54076461272118	47.9398065762238	33.945330449057636
C	-1.93797778	-0.0098305	0.02616617	23.209613934148145	-23.059776741310145	-6.486144937401847
C	-1.15498294	-1.23555091	-0.0775739	-24.235358737680098	109.47971605465507	-1.8383255876705864
C	0.189666	-1.11864981	-0.18089479	75.21243696439095	-43.11624601584082	-12.046330062237669
H	2.94251642	-0.16661007	-0.91058024	28.37109742520442	-0.6004218586221589	-45.396623283064
H	2.87980724	0.78898869	0.56853333	8.145023105392044	29.982928329245592	-1.783156632470006
H	2.92010978	-0.8455601	0.68093883	-10.71471136339155	-12.831421564776813	-5.470344901418365
H	0.64950765	2.22377772	0.14980304	16.53513119443016	12.9503226245697	8.515615640021199
H	-1.65421014	2.28371948	0.30137834	5.348487218733758	-57.289575674472154	-16.349016235078754
H	-3.02732855	-0.05633549	-0.07822108	3.2503377503852464	3.385110334446722	5.4477471121793934
H	-1.55819772	-2.11951708	-0.3854464	-35.75523646779939	-59.103274567271114	-7.972604395466101
H	0.73190359	-2.06130461	-0.4373117	-6.407116694264174	6.936678913202831	7.030014790631436
15
Properties=species:S:1:pos:R:3:forces:R:3 energy=-170221.78353392388
C	2.50234697	-0.04408488	0.06706185	-1.0519466806068987	7.225333439284885	-21.702850975956512
C	0.92105479	0.02921952	0.06582166	72.15068766479001	-45.26759130179814	-35.240638717045215
C	0.19195111	1.17483008	0.0871636	4.6251642872774	53.90749116367135	26.69794909419786
C	-1.20324749	1.17420062	0.0750359	49.92252687219757	-12.932639032364827	6.767663340090078
C	-1.86947726	-0.00056836	0.14699374	-25.27071572338904	-9.096407268849694	-16.74961400130178
C	-1.1479053	-1.12206022	-0.18151793	-1.4710254538959227	-96.13628086192868	16.97221368690415
C	0.28135493	-1.17927289	-0.26934931	-53.62408750719576	21.487149621038274	16.165285249864837
H	2.92915664	-0.29525611	-0.99904955	-20.467096557329313	12.103244841528417	37.84642787261309
H	3.05737178	0.87934256	0.43359199	-18.65411984711233	-19.835325017553558	-7.015394053548734
H	2.77950104	-0.90564734	0.69669119	3.6890757372522796	4.770230207063475	0.7606448884431001
H	0.72383046	2.12007167	0.36440246	-8.80832012946581	-10.850988145964356	-15.864541323039766
H	-1.71437141	2.0405323	-0.06922596	-34.641813968044644	66.60446664696555	4.945052466631867
H	-2.95357395	0.02332175	0.31329837	3.726165375719268	-8.788309695383928	-5.385073051779146
H	-1.7508119	-2.12696807	-0.15814579	27.58631868621472	36.270855315886095	-8.686613536072576
H	0.78884361	-2.11866415	-0.47610601	2.2891872435883918	0.5387700884053624	0.48948905999868525
15
Properties=species:S:1:pos:R:3:forces:R:3 energy=-170217.63447687673
C	2.41670181	-0.0230129	0.07706236	39.69515946687849	-14.385732491584523	-7.436800075708881
C	0.95051025	-0.05149537	0.09214311	-44.040668532425194	69.04255309179764	-48.47240508004427
C	0.20658308	1.26618262	0.057022	30.50512395316524	-38.88833588214166	16.68898512232042
C	-1.17961305	1.24640785	0.10787215	32.82071311591164	-79.45329297709031	-5.835253625343678
C	-1.83659423	-0.00771001	0.11744897	21.667928088359066	-4.1412435877307505	-3.9550912734765302
C	-1.10804131	-1.19199692	-0.20689118	-99.30889323340148	-29.647713518071075	27.7784427450415
C	0.23495837	-1.22325491	-0.30141004	40.05782503350589	58.628906022517334	34.186433871063976
H	2.8021548	-0.34312251	-0.95903795	-3.7984052504715127	15.940041961077714	29.488080496817876
H	2.90617518	0.89161487	0.47542666	-10.414836797770304	1.240590831225901	-16.755803765151377
H	2.81014355	-0.75614591	0.78871016	1.8853924261978943	-13.25679648550977	-0.03141458866693469
H	0.67829568	2.2880734	0.16206744	2.356627799680023	-30.25068114127275	-3.6484653910052813
H	-1.69304391	2.12292989	0.15954422	-38.88222060276362	59.48158079820415	8.351173122052668
H	-2.82217437	-0.04780473	0.56626573	-12.200141614740428	-5.191193595461387	-12.942103027004782
H	-1.69284165	-2.21070648	-0.14818717	22.61948125064103	42.897510423910035	-8.926996170801962
H	0.77081813	-2.12382236	-0.36781149	17.03691489723331	-32.01619344987091	-8.488782360092701
15
Properties=species:S:1:pos:R:3:forces:R:3 energy=-170221.17455011775
C	2.3955183	-0.03137766	0.11183966	3.0853145524905203	10.1885290584525	6.903449597761765
C	0.92673045	-0.00379639	0.02814939	-11.207740549926513	-18.971562812306058	-24.585659937985604
C	0.25243179	1.24316516	0.06459958	-27.641780066157235	-10.841687337000515	-2.866183729563868
C	-1.14412305	1.30225699	0.12137267	-39.85491382014846	-56.20600984120395	25.66100024826594
C	-1.81392204	-0.04873662	0.09385757	-11.0129224483024	49.36167724618264	12.936597385658887
C	-1.18669972	-1.23987848	-0.1804872	88.26209238391966	42.640595345328556	-7.042435439984111
C	0.26754375	-1.20336257	-0.27194342	-48.38900033675538	-1.5414783505272522	20.038801894132007
H	2.79195873	-0.23008402	-0.84644622	15.822552898521467	-12.203449972151788	-35.744095290733114
H	2.67176859	0.9989021	0.27678855	21.036942168240376	7.9055595025102425	19.192048163055183
H	2.81566548	-0.80070888	0.77679715	-1.427844041192561	10.587951691426511	7.117299648103317
H	0.81566259	2.15385306	-0.02749464	11.416791947391138	11.748335149333277	9.422930902167653
H	-1.78589068	2.20958498	0.46205807	29.484752509910752	-32.04394263398978	-22.723915755924544
H	-2.84576437	-0.19573721	0.43139637	-5.03519555718407	16.723513464232745	-8.34268231947785
H	-1.63833618	-2.17515197	-0.29423716	-27.191030533823085	-31.110183147320683	-0.640593749475724
H	0.77985722	-2.17717839	-0.38954942	2.6519808930157174	13.762152637033667	0.6734383840000147
15
Properties=species:S:1:pos:R:3:forces:R:3 energy=-170231.90386038352
C	2.42989402	-4.549e-05	-0.05320119	8.402827292317998	-3.894403702239879	41.03213654678985
C	0.97830691	-0.00382113	0.10846314	-68.47467244194814	9.500419087157898	-23.63844019806932
C	0.24160941	1.2392862	0.22490728	-6.833077553272504	-69.6321068375999	-0.581305469247441
C	-1.17482953	1.21892187	0.12318602	30.781187093953967	-37.251472296629274	9.129203813541686
C	-1.86614813	-0.01237952	0.02032644	48.110341521384335	5.643496619564267	-11.95241624687116
C	-1.13332176	-1.23622516	-0.18808862	-59.92580037129593	46.946131260784874	4.524527275074299
C	0.2250702	-1.21587133	-0.17624234	24.17351622433279	41.71060937332176	11.706618351412697
H	2.70655043	-0.62346056	-0.86245266	14.487017830360138	-21.289577515187624	-20.9677818524227
H	2.82116605	0.97613943	-0.21451899	8.279269790356455	26.211080965219054	-6.902235229189625
H	2.88690996	-0.33983661	0.8922591	7.034514385025219	-6.492573905186505	-4.484202859369784
H	0.79805717	2.12712896	0.43573407	6.279545923242957	18.91187410273568	-2.7884132739031537
H	-1.63031995	2.17231566	0.09394856	-24.097435529042425	21.718044347260005	4.061455679030914
H	-2.92160387	-0.01690642	-0.06934716	-26.880126096834072	-0.19442119510223901	-1.179653023420115
H	-1.78355986	-2.0576578	-0.50625758	12.96470095872351	-8.993089374635447	5.838329516161373
H	0.69076194	-2.11576671	-0.47588544	25.698190972695713	-22.894010929462656	-3.7978230295174136
15
Properties=species:S:1:pos:R:3:forces:R:3 energy=-170214.81135337558
C	2.36565448	-0.03926453	-0.08157729	12.734733072259878	22.1398665492535	45.59615941405101
C	0.86846529	0.01983383	0.10742717	82.65887907288695	-24.355837648690677	-4.726040904642961
C	0.31711952	1.24403818	0.32439126	-118.0224270229056	-18.319330415389548	-30.394308064802477
C	-1.13929398	1.22895559	0.14699261	24.28046382004733	-47.48179757728729	-3.635727911975999
C	-1.86279579	-0.04043277	-0.02938087	59.47171582403734	32.844963035989394	11.084738345678254
C	-1.16474132	-1.22662552	-0.1833753	58.39296094465301	-19.594068504664538	-14.692402844513152
C	0.27568667	-1.17477097	-0.18138627	-86.47611076569636	22.855032718158885	22.9383660440422
H	2.71452784	-0.69476136	-0.82921226	2.8365877665549526	-24.64743435495576	-29.255433354271855
H	2.65708584	0.95520987	-0.36839089	16.50526548376648	16.385063573458698	-4.2397293584054605
H	2.96696551	-0.31365418	0.82723741	-12.658938842591372	6.190859258704757	-5.957438250241899
H	0.90080316	2.10205629	0.15844049	14.130556190169319	32.76400632329556	7.660659946151558
H	-1.67867207	2.09595679	-0.1736144	-9.529599943531114	21.453093773260125	12.995094792134614
H	-2.90624001	-0.10971814	-0.03858575	-40.88318967987133	10.486501483732178	-6.570924696642126
H	-1.54539157	-2.19909536	-0.53193321	-16.011432429501273	9.036411288559808	11.300153488865673
H	0.94132101	-1.97462336	-0.27167798	12.57053650972174	-39.75732950342535	-12.10316664542758
15
Properties=species:S:1:pos:R:3:forces:R:3 energy=-170232.19881134096
C	2.43782738	-0.02878691	-0.12450595	39.076507310291355	14.839454503723848	38.08444500722087
C	0.9649633	0.0578796	0.08507634	-6.952383962727285	-64.86639198119147	-24.63062743335571
C	0.25229592	1.21018156	0.28187935	-73.8731932281798	-4.138052100939647	4.096427693947034
C	-1.20135736	1.20059519	0.17108399	38.13857499820227	14.989830541580057	16.029884651628578
C	-1.83840807	-0.00917836	-0.1117561	-1.0120727057403438	25.882640991951828	7.12747645437795
C	-1.16520494	-1.21667181	-0.18639592	39.63800098114419	20.587301456538707	6.248211981209682
C	0.24971783	-1.20098269	-0.1008019	-27.431942798225872	23.92323004744891	-4.69427758936861
H	2.68969817	-0.89958688	-0.74466315	1.8590009008235775	4.096181035366468	-0.9539450946209272
H	2.90123456	0.90515832	-0.54808932	-11.036063274752651	-15.803219425453745	2.917948434030162
H	2.98359633	-0.177246	0.88590326	-13.727232295334671	2.2512686788803795	-27.74348017537053
H	0.66375397	2.11482017	0.64952478	21.038543772773036	23.117218354717483	-1.0301628718417581
H	-1.7215918	2.18230409	0.42527117	7.726024295944414	-31.701016552006045	-13.820475748447796
H	-2.8897995	-0.02211895	-0.25553807	-27.5805569864773	1.7476232147631177	-0.39858811746903705
H	-1.77180762	-2.09275664	-0.29701125	0.32463822517027174	-18.78033339186566	-4.958735343284338
H	0.72177999	-2.16472741	-0.28842332	13.8121547670888	3.854264626485783	3.7258981513446683
15
Properties=species:S:1:pos:R:3:forces:R:3 energy=-170219.17938618606
C	2.40722145	0.01369071	0.05868344	-18.211076863995725	-0.5155366644689446	-30.404934844338413
C	0.85086718	-0.00717378	0.00231807	106.5305191441436	-48.15457103732901	7.587039455886898
C	0.27087059	1.20348368	0.14773672	-6.62165222126292	52.752217764491675	21.964065112122796
C	-1.10451181	1.21001665	0.16496463	-23.738225740776784	20.567011136384046	20.999953689033568
C	-1.79086491	0.03564806	0.05796523	-66.12389408878751	-44.5445418702641	-6.502992776295344
C	-1.15526093	-1.25729	-0.20030889	-39.885308887624625	39.37677333704199	-13.095043544565321
C	0.22652132	-1.2312224	-0.23195708	-35.67403709996433	-7.963422299208317	-3.4629724889254647
H	2.98663816	-0.82731978	-0.34879271	-12.524625304670963	-7.50255793222221	2.252222596968017
H	2.55471093	0.8152688	-0.63817938	22.14586262204958	18.00374341631226	-13.900710863751076
H	2.88379224	0.31891954	0.96700136	-0.8236509778031894	4.093987140392544	25.664459545624887
H	0.82367339	2.16086917	0.43322694	-8.261061601961318	-31.13279627561377	-15.151463926330619
H	-1.72600333	2.07963274	0.4487978	13.331512572083422	-0.607160574672893	-8.328722123793405
H	-2.93455195	0.2200295	0.21064143	40.821937778066044	-25.31166362731415	-11.916545625888196
H	-1.70913887	-2.16368605	-0.5800968	6.327008090320901	21.10370937855627	20.075633040934107
H	0.63805789	-2.2111135	-0.48476566	22.70669258018389	9.83480810791436	4.220012753317549
15
Properties=species:S:1:pos:R:3:forces:R:3 energy=-170222.8990600542
C	2.50389223	-0.04335897	0.05258692	-28.901269538098553	18.67825663726705	49.95975612731039
C	0.91977094	0.06434024	-0.10723801	39.533785384903226	-41.15700541752857	-4.767901460702262
C	0.21272407	1.23655872	0.10146187	38.34166671895507	-25.750291032225093	-9.966571942221229