12
Properties=species:S:1:pos:R:3:forces:R:3 energy=-260117.91151929912
C	1.60386824	0.31331785	-0.26462573	39.3760714968869	3.684437220147321	-1.1601164799575097
C	1.39232603	-0.97323444	0.00323481	-21.585464556409	-42.04110611142309	12.183784712510478
N	0.14155891	-1.51053122	0.33038694	18.405911547324383	11.295419989280889	-21.06018986808545
C	-1.03746532	-0.79068359	0.06559517	-15.489898043499263	-5.01456647097051	15.770128644916564
N	-0.74814905	0.54244679	-0.19356565	17.560387067433343	17.880432201899755	4.40425935586651
C	0.54788101	1.24185353	-0.1409806	-39.17427057789039	2.1970956589768664	0.07515367820029902
O	-2.15685829	-1.3022194	0.16319979	19.566465339797524	13.636878011041324	-8.37014823608497
O	0.59478161	2.45809792	-0.00852042	-2.8848807723683727	-7.553293594904719	-5.461601547288313
H	2.15518645	-1.74560778	0.0506913	8.7833585006978	4.310080709870349	-3.030052486907832
H	0.07647413	-2.51219708	0.2042026	-7.890531321912111	-6.9311227795457375	6.4051740341938395
H	-1.49903913	1.21229115	-0.16644517	-17.958586308894947	2.3320474781947027	0.17729358791107888
H	2.62409797	0.63838147	-0.43389837	1.2914376287834037	6.20369768743285	0.06631460474859363
12
Properties=species:S:1:pos:R:3:forces:R:3 energy=-260112.15087552858
C	1.64797174	0.3460077	-0.25389517	-13.18964420122679	-13.365330514956334	3.0690135858515095
C	1.36788541	-0.95823813	-0.05946962	-0.6746401164024499	-40.14323820344655	25.489712341914355
N	0.0883299	-1.50040066	0.37068775	73.07349727662812	32.79857643953322	-30.33023756000146
C	-1.04108043	-0.80781265	0.08383341	-28.28400848141576	11.747906101202389	3.927455446197233
N	-0.71515846	0.5463898	-0.23222279	-35.27827026146317	-3.5135888364729637	7.157334156419855
C	0.53451502	1.26142033	-0.14749957	-4.302196910006331	-42.853984063020214	1.4674586023971052
O	-2.16175781	-1.34446993	0.16677322	26.380112882052735	32.26095850606458	-8.398454806255227
O	0.62234861	2.44620197	0.01073	-10.061535486197457	43.20987857652373	-0.6999081253474747
H	2.2001278	-1.68345352	-0.07799502	-12.135770830553945	1.0322250059817506	3.275834585171859
H	-0.05435186	-2.48188544	0.38778745	2.9068250588025237	-29.63308246460871	1.8899630795730642
H	-1.56359834	1.10908709	-0.22171529	0.9242130070453475	8.916862518848436	-1.7674012672065573
H	2.66401685	0.71575437	-0.33898197	0.6414180627763794	-0.4571830657600217	-5.080770038705035
12
Properties=species:S:1:pos:R:3:forces:R:3 energy=-260106.43411329802
C	1.66891171	0.35888064	-0.2489985	-43.837215416711054	-34.03563837462784	5.675886149422612
C	1.35158824	-0.96552633	-0.07863268	26.974236885734424	-21.780359802885883	24.70706501670138
N	0.08331809	-1.49666434	0.37967857	69.961749347345	61.39349299143535	-35.23502680271629
C	-1.05365722	-0.81367171	0.09423096	1.411301527359534	23.788601055414958	-3.187040370100878
N	-0.70994907	0.55162429	-0.24713916	-28.22905255652455	-31.707713561075735	8.81587779189637
C	0.52371973	1.25744148	-0.15009605	15.84292575256428	-22.630747601585647	5.928900281901882
O	-2.15656468	-1.3552505	0.16605117	8.052739716513397	28.00991193127669	-5.346687146437911
O	0.6323239	2.44998391	0.01871514	-15.649848653400813	28.271961025176893	-3.0682889073193524
H	2.21840093	-1.67044025	-0.12742632	-22.977489135109217	1.631509016185499	6.339276373347758
H	-0.10282312	-2.44239203	0.48445137	4.7086163638811165	-59.807476070441176	4.465280384149156
H	-1.56556281	1.0570269	-0.25137154	-18.183725892240947	29.94971126670367	-2.668821578041422
H	2.67583941	0.75241916	-0.31246316	1.9257620606280208	-3.083251875722083	-6.426421192849427
12
Properties=species:S:1:pos:R:3:forces:R:3 energy=-260093.32495231886
C	1.69667932	0.35943307	-0.20650928	-72.63811176547588	-51.00595849189875	-7.706403621877105
C	1.30718111	-1.00326596	-0.15804943	65.62243390318307	15.331106430093023	35.25737627315167
N	0.12107087	-1.46186403	0.40606762	2.124483094272849	84.7894680130433	-58.65618164071559
C	-1.08028869	-0.79292348	0.14555436	28.0835660109718	15.522699966775022	-28.577424963267585
N	-0.76037162	0.54553817	-0.33396831	7.325228521481198	-10.532920351310084	22.34521977848277
C	0.5117032	1.23913036	-0.144142	32.706974776303866	41.75510200158084	23.541058283839636
O	-2.13793833	-1.39814258	0.15854864	-8.412841104093483	24.81058191873047	8.24983913597368
O	0.66819143	2.48034196	0.06248991	-33.59244374967446	-56.566672149633334	-19.590003260468006
H	2.05787862	-1.81032898	-0.30771177	-6.972535977792436	10.817505069675345	7.299512928966018
H	-0.00137495	-2.26275064	0.91276694	2.3148376094160112	-72.4386412269827	26.212324473465372
H	-1.53864988	1.15943666	-0.4929741	-15.534255099138592	8.791682287543049	0.5836370041978475
H	2.67787406	0.82427618	-0.29724694	-1.0273362192786704	-11.273953467869848	-8.958954391589604
12
Properties=species:S:1:pos:R:3:forces:R:3 energy=-260094.68404402456
C	1.67441298	0.33737844	-0.19456859	-45.15681639848936	-28.666458397854075	-15.92337566554166
C	1.31550435	-1.00296026	-0.16897197	53.70275694008324	-12.454129696827689	37.12023018416254
N	0.1344869	-1.44622719	0.4047403	-5.4322724958885	30.43822645539353	-26.317585519469716
C	-1.06944951	-0.77526872	0.15144546	-14.774768980095871	-8.630325296398896	-28.955756417650665
N	-0.78825756	0.53956971	-0.35518698	36.209139878633465	9.066456307596143	25.660513264229145
C	0.5250241	1.24998708	-0.13322108	10.058743767250157	16.60726162509566	19.781465347505222
O	-2.1388161	-1.40550099	0.15801284	18.99849166306409	38.31786274116534	10.409717994463415
O	0.66929752	2.47620744	0.07087369	-28.662021295492455	-45.37683640182023	-18.229401173624876
H	2.0039547	-1.88916768	-0.32984475	-5.165947659467834	29.570739263825626	6.275839219654427
H	0.11815672	-2.23920228	1.01903414	-3.446177909408363	-18.197261701541457	-4.502587176383844
H	-1.50151408	1.22168488	-0.56337392	-20.10949537894044	-3.257565639195273	3.114574255036024
H	2.6508388	0.78481143	-0.33471392	3.778367868728804	-7.417969259092768	-8.433634312287767
12
Properties=species:S:1:pos:R:3:forces:R:3 energy=-260110.20834543768
C	1.61487559	0.29383747	-0.36271456	13.54643579250824	-30.828653454224536	19.605309176861454
C	1.4200847	-1.00044531	0.06546531	0.32399157964875086	24.133576287725756	-11.607239933457787
N	0.1700625	-1.54238048	0.3219132	17.283758157134887	80.49144168233643	-11.811257098683937
C	-0.97929109	-0.77454139	0.08625791	-21.92000464532403	18.253592000001717	-12.103692878780011
N	-0.76493052	0.59738397	-0.2445354	20.092971633887196	-71.82375275275346	-2.2682221878223734
C	0.49350059	1.18806272	-0.25578001	-21.481390151716724	39.104476902942636	36.350007921962785
O	-2.12551431	-1.1802158	0.17672369	1.3215766955306572	-15.163575035378823	5.877126999369573
O	0.51528904	2.37425527	0.08942114	20.655448536219392	6.236642520079024	-19.040188495636908
H	2.24717288	-1.65629767	0.29577491	6.564582973008159	-5.306739140267483	-1.674595860484642
H	0.13494603	-2.50047905	0.25200284	-17.4299023658595	-67.38121385412826	2.5991946160722232
H	-1.56271702	1.13443435	0.02709017	-13.062150999843984	20.471772022632138	0.6893791760245702
H	2.63155599	0.6936303	-0.31456976	-5.895317205181516	1.8124328208642242	-6.615821435521801
12
Properties=species:S:1:pos:R:3:forces:R:3 energy=-260110.80810824462
C	1.61591066	0.29166503	-0.36132102	10.616320937673864	-27.03012953541764	17.839296244612438
C	1.41617391	-0.99813657	0.0683765	2.069423312035968	29.276661139946086	-14.184906428850843
N	0.17657734	-1.5430311	0.31481261	6.975255820949477	40.91662368383426	-11.7652175211211
C	-0.97763027	-0.77090211	0.09056415	-32.54518666271538	8.050981600479615	-13.487637410232752
N	-0.76368075	0.59043559	-0.23862044	17.377308992481613	-61.74599921104741	-1.0443896357077433
C	0.50053149	1.19206599	-0.26407662	-27.61273688807219	33.36097455445012	39.52401436450784
O	-2.13468344	-1.17770399	0.17534211	16.973328935900103	-11.073619642436894	6.496517948639733
O	0.51240259	2.37371987	0.08787869	21.5943746514308	9.323898323439487	-19.655712819099914
H	2.26456953	-1.60851259	0.30462399	9.517164410957198	-13.663903193130846	0.9564019444488936
H	0.13436429	-2.52865471	0.2436472	-15.141771314830084	-31.09397149132994	5.070362050416438
H	-1.56730547	1.1172508	0.05865777	-6.972666599916562	18.90105595995117	-2.269072760957014
H	2.63348855	0.67273721	-0.28748652	-2.850815595901725	4.77742781140037	-7.479655976702097
12
Properties=species:S:1:pos:R:3:forces:R:3 energy=-260103.98944639193
C	1.5800996	0.25016449	0.16266831	-9.77860985227674	67.84636770544027	-23.472713255236204
C	1.39514334	-1.03533098	-0.10421639	5.026849948992277	-10.216576684032097	25.632948780272752
N	0.1446052	-1.53164764	0.03415808	-3.836946696363667	71.93834632678428	16.47260967870284
C	-1.0056927	-0.74139868	0.17647834	3.8731617923047805	2.9839003632606973	-27.210556557850605
N	-0.79860673	0.68450921	0.02925855	0.7348304454674134	-84.95606821542019	14.84347151639544
C	0.46826583	1.23046732	-0.10227872	17.794245718566057	40.9595988891395	16.3550748762746
O	-2.06909169	-1.34588932	0.20425068	-10.80236268556944	24.47255494421092	9.392555260295204
O	0.62970015	2.4484353	-0.35050436	-2.413320629663199	-43.809570596952156	7.756479224318279
H	2.15990353	-1.77664507	-0.19068945	16.921296998750726	-10.053796808229137	-1.9163203619021965
H	-0.09702215	-2.36834925	-0.33920256	-18.235254863486343	-83.1235890932633	-28.139212470433847
H	-1.67220319	1.15393021	0.09027117	-17.211208572296787	29.14425565172396	-4.318850354677458
H	2.49721483	0.79067396	0.2973059	17.927318395591065	-5.185422482847224	-5.395486336022745
12
Properties=species:S:1:pos:R:3:forces:R:3 energy=-260102.5958356483
C	1.64092771	0.36056996	0.20651218	-47.63722174221468	-40.88771124747422	-12.22367266558619
C	1.38314504	-0.96073124	-0.06075907	6.170478260002455	1.7859066576276648	16.7132498781073
N	0.14346125	-1.59335433	-0.06031956	14.30868312414573	114.17288787809906	42.981730783341774
C	-1.03534643	-0.77412886	0.16814269	-1.3594249203485975	7.728419224426821	-29.28449846969968
N	-0.87318321	0.63693269	0.11383672	94.69525882548216	-31.12202626000406	-0.4746422842399865
C	0.50080201	1.25028321	-0.06724129	-5.4032609912040925	-22.690247254339337	23.427165459884105
O	-2.10756022	-1.32697301	0.22024722	-22.526035886140722	-4.247514656585984	8.433330342076697
O	0.6735783	2.38399741	-0.43328834	-16.92012254983773	30.102932411148608	-5.316650437972905
H	2.2098579	-1.62689098	-0.18733229	13.868433950631678	-15.323570445475553	-1.2360474637323537
H	0.00418381	-2.34247487	-0.64610337	-14.184276073653205	-57.011566911573645	-34.45602782918802
H	-1.62519058	1.29159013	0.10364985	-24.6857366846222	5.039116171369225	-0.7044201671775385
H	2.6492039	0.66795488	0.4267096	3.673224687701542	12.453374432892119	-7.859517145928506
12
Properties=species:S:1:pos:R:3:forces:R:3 energy=-260105.12083558968
C	1.6286459	0.22565404	0.03744161	16.146879684063045	61.809386994491526	12.550850861828401
C	1.43349087	-1.09010928	0.0741701	2.5037157337335594	-7.525523141206006	1.6931520933138773
N	0.15645809	-1.52827165	-0.04973473	-8.8655995400696	-65.58074934000783	-22.324699742133813
C	-0.93878991	-0.75424183	0.10581403	-72.14892095003967	21.17267465338184	8.385848886405318
N	-0.68528504	0.63365281	0.3100177	-25.16251668096219	-23.590597667352135	-2.471907485735854
C	0.47178478	1.21271275	-0.07837313	26.747568362349792	48.75604349449504	-26.606498411358803
O	-2.09785589	-1.19306433	0.09235726	22.440860753151544	4.920555810838106	-3.4143623001087904
O	0.40970175	2.43327292	-0.44984253	28.86959824297202	-63.81333042158613	22.613312378442185
H	2.11841063	-1.92152341	0.27298901	10.754238039009827	13.316185185344075	-4.851022146133153
H	-0.00796966	-2.49741373	-0.44024256	-2.5582621733609443	30.54303121916622	20.28815339273718
H	-1.45236301	1.31921398	0.21931216	-5.201653347434775	-18.182499829421975	3.3976786351718338
H	2.56445758	0.68338558	0.34658097	6.474091876771872	-1.8251769581196613	-9.260506162379954
12
Properties=species:S:1:pos:R:3:forces:R:3 energy=-260105.3260773167
C	1.62825516	0.29873432	-0.1929661	8.875837701194671	-11.715546173902492	5.75419392441003
C	1.3973629	-1.03308103	-0.08032588	36.28908680153962	20.813992910665867	3.957302138277593
N	0.17605348	-1.44999758	0.28326442	-12.346650881826546	-123.91524403129348	25.848441863946
C	-1.01759527	-0.77350867	0.15405696	-43.288141715920744	-19.700749919917858	-15.69458691961681
N	-0.77664162	0.58365543	0.18712009	-30.2395423456306	15.264974225009848	-11.426674098948212
C	0.46935919	1.21291532	-0.04250686	45.14092051666315	52.07614467926158	-27.88221927917415
O	-2.14815054	-1.30119033	-0.04060193	55.40142393671328	24.57123441527997	20.833812776515327
O	0.59918516	2.44939915	-0.25228297	-21.29828305275482	-46.47394059398367	16.603578256315604
H	2.19456532	-1.80974927	-0.21663239	-17.168798923458912	14.630216377242263	6.2785600356815126
H	0.17921039	-2.49434716	0.59664404	-19.14235170842378	52.519916216059876	-23.95853088799773
H	-1.66525967	1.081384	-0.03775617	22.329939329870683	5.077867503153568	5.802230674969755
H	2.70496003	0.55056474	-0.30439538	-24.55343965775845	16.851134392240045	-6.116108484286679
12
Properties=species:S:1:pos:R:3:forces:R:3 energy=-260113.75053741754
C	1.65042627	0.33841283	-0.2962604	-5.583700986421434	-34.693328360377656	14.979535478458418
C	1.4165065	-1.00530315	-0.00769161	-31.659751823736066	34.60680158652798	-6.749999266929826
N	0.14971285	-1.56928571	0.33050702	23.553364470287402	42.23844910433132	-30.46183543441098
C	-1.02751953	-0.7614652	0.07865525	-9.401409767836004	-56.936541804596885	24.41343877652234
N	-0.72999231	0.54601275	-0.08181743	-10.456128926632395	16.07056962276854	-11.775896168161136
C	0.53309716	1.26255136	-0.18488939	-12.168664310706273	-61.070516599013615	17.061044819510897
O	-2.16251117	-1.26947523	0.15222834	32.33590565706697	20.834949421904756	-9.85861843371612
O	0.53011779	2.44247855	-0.02533648	5.15977705084735	56.7891868147091	-7.152667378160817
H	2.21290957	-1.70093907	-0.04646083	20.078511604154173	-19.004921727026172	2.916707325279882
H	0.02922603	-2.53417213	0.0451584	-3.2082817201079643	-8.173704284981623	6.350480940887008
H	-1.58999875	1.07535656	-0.18516501	0.07541063406745982	14.49264381600664	2.0888204780794277
H	2.66984712	0.73600758	-0.39770601	-8.725031880813257	-5.153587590413801	-1.811011137299135
12
Properties=species:S:1:pos:R:3:forces:R:3 energy=-260108.81661411258
C	1.64477536	0.30107014	-0.07972821	-8.356997634780562	-25.147514240573454	-13.11599821677531
C	1.44898238	-1.06012256	-0.0207036	4.7620967996040955	17.92183163286384	8.70743139703208
N	0.16420507	-1.59988023	0.05953734	15.240378948365997	28.80566384552384	-3.8615633927980983
C	-0.96475435	-0.77568387	0.1179787	-13.211487049078489	-15.646024216942132	-18.632223792798282
N	-0.72565045	0.51916479	-0.26652952	-19.180061389163274	2.9743910204848727	5.53653943229616
C	0.45704306	1.25464626	-0.10023555	26.232451257999188	-37.520338093182204	-10.64693129999448
O	-2.12843332	-1.13120504	0.29886942	13.826615786396303	-13.900012773974476	9.464673864602371
O	0.46207493	2.45965431	-0.06177909	6.099095535515734	23.954817709518313	1.3182443127007286
H	2.28254103	-1.82714532	0.06321854	-21.69630251245325	23.488707604987514	-6.910117522785573
H	0.15811778	-2.3757041	0.65271642	-15.418707695393406	-47.27573330827327	20.80581422367062
H	-1.67334677	0.91830293	-0.28859218	12.765378748141622	22.32575778263061	-0.9934025157431499
H	2.67078911	0.55343082	-0.33090601	-1.0624607951816256	20.018453037074902	8.327533510586013
12
Properties=species:S:1:pos:R:3:forces:R:3 energy=-260109.1807093667
C	1.64600006	0.30098264	-0.07587565	-14.250258404932717	-26.681832501889787	-12.310723158040624
C	1.45158687	-1.06154603	-0.0181818	4.175302943233148	16.776777140717822	8.287398184569906
N	0.16400999	-1.59989317	0.05345283	14.795121382804862	31.617925342785462	-2.8788380865196856
C	-0.96734076	-0.76967248	0.11992844	-6.5789711458834725	-20.08333382459958	-20.026075828159904
N	-0.73082129	0.51858959	-0.26735111	-12.605380708565427	6.372922614373024	3.95159803860054
C	0.45805167	1.24956399	-0.10104317	23.458860097723786	-26.25810438415402	-10.03582850005856
O	-2.1243151	-1.13171571	0.30190636	7.021055045511422	-15.452093363226608	10.687836852285288
O	0.46222131	2.46059186	-0.06204027	6.31829407076774	13.220179401403607	0.4935381971293125
H	2.28804795	-1.8290984	0.06177465	-22.92975191465159	24.176185255701004	-6.654897207544217
H	0.14280889	-2.3762336	0.64550183	-14.268740332635309	-47.34113445467113	20.802074148982587
H	-1.67410956	0.91864154	-0.31741039	10.876916143081793	23.271689774661922	0.13015582238765466
H	2.66139928	0.56390546	-0.33108711	3.987552823453524	20.380818999013577	7.553761536380152
12
Properties=species:S:1:pos:R:3:forces:R:3 energy=-260110.84010909233
C	1.64874386	0.29307613	-0.05172952	-12.261216902265945	-5.382823242992986	-14.511627709324406
C	1.46896818	-1.06625004	0.00184083	-36.192535972113966	31.64287368791583	2.2954665742404394
N	0.16541955	-1.59604291	0.01349441	-1.4608603590741736	-20.184914378533353	47.85180610466254
C	-0.98399966	-0.73488161	0.1272741	25.74252305005274	-40.10756530310033	-27.047237409052332
N	-0.76780866	0.5187732	-0.27318073	21.169879995185386	44.28570037766786	-9.104359278160025
C	0.47003242	1.21235527	-0.1093037	-0.9176862072464143	37.11709367447195	-4.6012373914556015
O	-2.09666775	-1.13968086	0.32659157	-36.26410545935443	-28.267396633603532	18.7263160281117
O	0.46481987	2.46521473	-0.06420195	9.344315183170476	-49.09546546107317	-5.026410035273777
H	2.26695719	-1.77960087	0.03295679	11.443446334308053	-9.625325137941466	-1.4624273935265413
H	0.00269658	-2.46630472	0.61071206	7.812386839845803	26.45106321157889	-28.114083604502213
H	-1.6466717	0.9967747	-0.51386156	12.18897188985995	9.762394483229734	10.337282346248713
H	2.62539484	0.70242227	-0.30768234	-0.6051183924481922	3.4043647225419904	10.656511768176774
12
Properties=species:S:1:pos:R:3:forces:R:3 energy=-260099.68005732188
C	1.57720699	0.31610086	0.17867254	9.619016641687683	47.30173914524859	-6.257447193787088
C	1.36485726	-0.99542653	0.11675723	-19.199180664030806	-46.68534828114574	-41.512768307561835
N	0.14582747	-1.65675226	-0.29653553	-1.0777687204959108	36.66019855198436	67.75648590363762
C	-1.05167465	-0.78720212	0.09114788	9.044009253830687	-30.814758904998094	-22.96232966720422
N	-0.8469529	0.58109661	-0.25736849	22.41637202049021	-4.786048425651638	17.675977439528683
C	0.52910472	1.33966751	-0.12998378	-10.484774233996516	-55.95055180557392	14.29732171866936
O	-2.07761663	-1.34103341	0.49334296	26.073294777947098	31.01843317580272	-10.424685165153727
O	0.67070265	2.53330124	-0.23959379	-14.503023268634093	-6.505263048379268	-2.3743554964727114
H	2.20088898	-1.69559204	0.07544871	3.1615498235413475	1.1692491820354485	12.077746015628907
H	0.10394265	-2.56657451	0.25918843	-9.672860395346465	26.20764306329896	-24.488243397035856
H	-1.68561289	1.13861862	-0.06157507	4.765000870398364	2.3444795639607934	-2.0770120751301464
H	2.62632062	0.65787848	0.33683555	-20.141636105345476	0.04022778358129146	-1.7106897753426697
12
Properties=species:S:1:pos:R:3:forces:R:3 energy=-260098.90639410957
C	1.55732539	0.29698153	0.17622344	-34.00256211350628	47.73972805991795	-6.718798697550103
C	1.35435465	-1.00900563	0.10232018	25.757802576919577	-45.264462736533034	-31.924500527088767
N	0.17163702	-1.65029028	-0.29429351	-29.465580074464814	36.901000997254734	51.01977539715735
C	-1.06154565	-0.76733226	0.0714505	25.676921762185415	-56.191448950708214	-3.337688291238688
N	-0.78824351	0.59447045	-0.2004897	-31.374946601427812	12.08980131450833	4.2084939578679466
C	0.46856857	1.33595499	-0.11133289	45.39333562380547	-60.30285323869818	10.62909187180777
O	-2.07830144	-1.34234241	0.48748475	34.11708988367535	44.971453673414835	-22.730269237858902
O	0.66859294	2.52814154	-0.2671678	-26.524496799276264	-12.656208178083434	1.2987448546251013
H	2.28048742	-1.66574836	0.09145264	-26.669914696934303	10.19789131160327	8.352147944062178
H	0.12485899	-2.52374587	0.26656138	-13.468641091352715	4.815455542608617	-15.996666330724217
H	-1.64476144	1.17213435	-0.20146983	7.845638471470059	-3.3942839934808933	1.3501880637554864
H	2.55584529	0.57582979	0.37615833	22.715353059090802	21.093926198680276	3.849480995217123
12
Properties=species:S:1:pos:R:3:forces:R:3 energy=-260100.35274848572
C	1.53024383	0.30147028	0.17184209	9.793255190808441	19.34379469603634	4.787765109108455
C	1.35405827	-1.03762812	0.07635274	8.158361438383125	47.60285867758897	-10.129930526127836
N	0.18275717	-1.62944903	-0.27417214	-58.96209569285551	55.07010374860322	11.262153474829589
C	-1.05861165	-0.77352918	0.05270771	49.07232811002788	-36.328271488563615	3.330704098919123
N	-0.74950114	0.6089268	-0.15072889	-70.98453331294625	-9.080454958621802	-6.99888971771282
C	0.43638982	1.30794615	-0.09112648	88.66138447004914	-11.740663152938579	-0.9108472227338806
O	-2.06819875	-1.32930904	0.47545199	20.669182521970818	35.1266097142131	-23.434923831460505
O	0.65833468	2.51933878	-0.28992712	-33.221592941387385	-37.56505090854314	8.66125339199315
H	2.24230506	-1.60643583	0.14943429	16.825664995272977	-28.144792671577722	4.059126656370826
H	0.07183392	-2.48314187	0.20190395	-12.526423983966934	-44.49156866067365	9.688153177002699
H	-1.57682077	1.18819287	-0.312972	-3.632745427864756	0.26274653576072887	5.242858747230337
H	2.56339472	0.59737101	0.41969357	-13.852785367629908	9.944688469039002	-5.557423357416827
12
Properties=species:S:1:pos:R:3:forces:R:3 energy=-260110.6403395863
C	1.71208558	0.37184799	-0.00191819	-44.562133131048604	-32.33835057740631	0.5903738907518123
C	1.45031726	-1.00914902	-0.00791438	-2.957768712959092	33.86970792091411	11.935441643226126
N	0.17155781	-1.5574888	0.03635588	-11.835951599332587	69.96342552116926	-1.2720383511405915
C	-1.10799312	-0.74866822	0.13006928	57.056200225916754	-67.05426388252647	-9.8607004472857
N	-0.70330525	0.54274964	0.19211383	-47.63948127279045	31.479563280835038	9.379994051120196
C	0.51865631	1.23492327	-0.04442745	33.3360562046088	1.447856994811497	-27.182189911087132
O	-2.21881709	-1.2791735	0.11311383	28.89106374562292	25.34332879025524	5.280370709151562
O	0.53429693	2.42190383	-0.39228341	-11.396020406253006	-16.23313134872128	19.595799112227493
H	2.25302084	-1.7435775	0.02935151	1.225744928088294	-1.3667237940128611	-4.243007700250293
H	0.08387897	-2.52528073	0.10962375	-7.165812115195161	-47.66565158517552	1.0755013406059173
H	-1.52898849	1.13204788	0.28812677	1.6818755188263197	14.25047736237946	-4.813594206834009
H	2.6604605	0.89914899	-0.0758943	3.3662266146979953	-11.696238682648998	-0.4859501304300322
12
Properties=species:S:1:pos:R:3:forces:R:3 energy=-260110.82002583353
C	1.54826515	0.28348208	-0.21058874	-4.162823549920025	-5.676559079837559	11.10304048283876
C	1.3607414	-1.0562606	0.06370829	54.84179338756369	36.267940706182344	-32.52547790398438
N	0.15704896	-1.58472781	0.1962175	-34.1097847305325	-23.996502195210773	16.309147271538816
C	-0.97932031	-0.72750277	0.13640825	10.243605730229168	-64.13329244922615	6.750298899442938
N	-0.71550347	0.6183037	0.34068705	-46.18213684024575	-1.6246995553824755	-28.52698329213676
C	0.44968112	1.25493918	-0.13178797	50.7729486609797	-2.0850982191536667	8.94360984611206
O	-2.05882736	-1.2715224	-0.03925768	-13.677198510722457	20.814776881923823	1.8565109886177888
O	0.56004353	2.46940285	-0.30772611	-15.480173959054582	-15.570319757888637	-2.1778676756616133
H	2.20234094	-1.74835625	-0.03970779	-1.5601196205839623	0.9535900654956272	6.234598539990821
H	0.03954252	-2.63018348	0.22726549	-7.258112727532579	35.24334008494949	-1.6030350176469772
H	-1.57228097	1.04429491	-0.0304795	-1.9368800381372677	18.162970229663273	14.520372966335529
H	2.52977003	0.67340269	-0.41701905	8.50888219788045	1.6438532883509451	-0.8842151052163789
12
Properties=species:S:1:pos:R:3:forces:R:3 energy=-260104.27469139127
C	1.56794469	0.2429683	-0.42040143	-2.742077308269593	47.964078192567044	-4.726865672009548
C	1.38698955	-1.03035034	-0.06590005	-8.982009118738342	-10.553533125525318	16.683930187872082
N	0.14335549	-1.43894255	0.49123747	38.763808704778945	-52.94236471382112	0.5080639597397113
C	-1.01752071	-0.78580027	0.14664582	15.78008567814496	2.584625743124483	-0.028020023741400366
N	-0.69859462	0.58025548	0.1420947	-95.00333565250375	2.3251721251234727	-26.253102259172135
C	0.46734353	1.24324448	-0.10002064	78.38725850428833	-17.752409972681694	-12.822412904612776
O	-2.10409681	-1.30049304	-0.09699844	12.238232787684552	13.516176568522852	9.574537092051912
O	0.57685659	2.4610365	-0.07837077	-5.707977458420015	-4.364293937171702	-5.269833291235658
H	2.21697865	-1.7525677	-0.12602563	-14.496659068582904	-1.7087747876413943	1.3020054798398397
H	0.06429693	-2.44315479	0.71140906	-3.1178942756712185	11.229520891175433	-6.847772787543734
H	-1.43587673	1.01711407	-0.42026608	-10.56607990095054	14.901909956562822	17.102975243628563
H	2.45844424	0.62132687	-0.94511605	-4.553352891783474	-5.200106940011192	10.776494975271003
12
Properties=species:S:1:pos:R:3:forces:R:3 energy=-260104.80327842792
C	1.53789664	0.23627567	-0.43486331	-6.511970181777851	11.231250307473683	23.85221101564597
C	1.37331662	-1.06005576	-0.04598431	-0.546377107797623	-7.188182182743133	21.961628552491696
N	0.16885737	-1.49430965	0.43103265	-6.544705453078316	68.05649151199755	-4.838203001293607
C	-1.01965909	-0.76182807	0.17572286	34.42247408391841	9.048721814033184	-15.007737155190707
N	-0.79238683	0.61187643	0.05520375	12.010300705651638	-9.86943732730184	4.018219465296246
C	0.5293133	1.26255771	-0.06588832	-15.741959481778851	20.13587841177774	-33.85384367904112
O	-2.06234548	-1.32919784	-0.04787051	-27.429033640206093	-5.642813636299739	5.9870584759542504
O	0.59595309	2.51542577	-0.05957725	3.92276840743753	-64.18318506126398	1.5315599096600734
H	2.14373926	-1.83814785	0.13744376	-0.39545095769357064	15.17004220750268	-20.169295895168723
H	0.01802382	-2.42334892	0.62912971	-8.471010547699452	-64.532377426025	11.898741828805383
H	-1.52176026	1.02079944	-0.5192289	-7.760178261476203	14.905798383094474	7.510809280827469
H	2.45499462	0.52363147	-0.87958616	23.04514243447732	12.867812997500712	-2.89114879803075
12
Properties=species:S:1:pos:R:3:forces:R:3 energy=-260113.66285504872
C	1.56840157	0.28609832	-0.29510874	-24.9485590644674	5.842581456925999	4.402539555434424
C	1.39229145	-1.01242788	0.00563676	1.3240274860896344	-19.227616509439326	-14.28860972132432
N	0.1387633	-1.50855043	0.33583496	12.436016381809502	13.893530763368629	-19.619467188073074
C	-1.02266415	-0.74704975	0.08107498	7.151035097844914	-30.07550777022789	13.32740296339685
N	-0.81499236	0.63861805	-0.11605615	-10.537464141204897	-23.089040505857664	7.198591207894245
C	0.45309409	1.24413271	-0.19338599	37.937705171564474	28.802569662183267	30.096143712531084
O	-2.07235724	-1.37989097	0.12765748	-11.504154259397193	30.253766641258593	-4.860552950231249
O	0.67577507	2.46366362	-0.01574857	-25.57448054154416	-34.08051659657544	-15.458279689989196
H	2.21173329	-1.73361819	-0.16309117	-8.213769170091629	3.350958396742099	14.40818344329308
H	-0.06634389	-2.51015955	0.30384146	3.9339085337511195	4.598494364875473	1.7827326204758822
H	-1.61937327	1.17665587	0.20127427	-0.5913420689180471	9.94377220938521	-8.075582373811553
H	2.54762923	0.68487502	-0.38674623	18.587076574589048	9.787007887314937	-8.913101579732233
12
Properties=species:S:1:pos:R:3:forces:R:3 energy=-260111.37851983806
C	1.56957062	0.31257134	-0.25958861	12.913819893935532	-16.932498115077998	-8.756834645198094
C	1.39355168	-1.01307989	-0.00787913	23.147882320411426	3.5948531790030622	-7.283481232862581
N	0.14518878	-1.47455623	0.31253685	-4.519714120582081	-69.85079101288389	-18.015316638936312
C	-1.00862267	-0.77138697	0.06839388	-41.84291305221212	-12.528580725961248	16.52369616135718
N	-0.79386319	0.62690779	-0.1290311	-47.517782857963454	-9.66340295812086	15.834151176439685
C	0.43406775	1.23791282	-0.19575895	64.48404423556536	15.67135340619715	26.91880889841405
O	-2.10225435	-1.3746079	0.1511764	30.018032973683336	40.230616343280296	-8.644271000699533
O	0.67751413	2.44284213	-0.01871333	-29.887846227120505	-8.905070971246278	-11.871891962127382
H	2.18830044	-1.80069682	-0.05369428	-11.711474754038848	19.23315041188036	5.806399222790748
H	-0.04128625	-2.53789061	0.2537671	8.641886415782777	48.93439125279784	6.966897828848494
H	-1.55570196	1.22317156	0.25237703	6.6070478039491425	-8.559071307791912	-15.969333663057753
H	2.57683897	0.7265862	-0.40219053	-10.332982631156922	-1.224949502039622	-1.5088241449177697
12
Properties=species:S:1:pos:R:3:forces:R:3 energy=-260109.48724598714
C	1.57284033	0.33273185	-0.22928037	34.785886520343105	-34.54870102893789	-19.740229583155216
C	1.39966754	-1.01295853	-0.0219839	14.451184494823089	37.595258408624694	4.43344263924268
N	0.15049418	-1.45610492	0.28761802	0.9052000779819946	-31.57228109106259	-13.354707339103953
C	-1.0051417	-0.7966266	0.06087948	-65.93842156205663	17.8500222432909	17.678379376574764
N	-0.78371937	0.61386638	-0.13776216	-41.430125750115714	-11.8167411649875	10.868047913433607
C	0.43191974	1.23606204	-0.19130152	64.48201560827414	-14.8658108168475	19.652954769024607
O	-2.12450919	-1.36263417	0.17097548	47.78886463607501	35.789256242934584	-10.984350389921
O	0.67368742	2.42215246	-0.02361196	-27.56255990202444	26.995366244350873	-6.25016364111266
H	2.13704509	-1.81208308	0.0641862	8.533099865490033	9.303223799602643	-3.38815497523935
H	0.00377831	-2.44438991	0.22686139	-3.1871365625920665	-21.400506206148023	6.524466986185614
H	-1.48458837	1.24738083	0.25591941	-12.299258210508915	-6.362576158754264	-10.39470468171922
H	2.58350727	0.76456701	-0.42227174	-20.528749215864867	-6.966510471973679	4.9550189257901325
12