12
Properties=species:S:1:pos:R:3:forces:R:3 energy=-260104.36951324443
C	1.58159034	0.31999558	0.20854931	31.369977827015905	-11.027314727713462	-1.7245602196336887
C	1.4185762	-0.9678441	-0.0932727	15.101012355201036	-14.835933427544093	15.372996212903514
N	0.16813822	-1.47393808	-0.04457087	-25.39198683555497	-14.640707230315824	-13.309308863115515
C	-1.01888299	-0.72663072	0.18692404	-19.8913752187788	12.719190294135261	-21.948136966900677
N	-0.85997502	0.68053231	0.27566229	78.472656848275	-46.46593156631872	-2.296107725083279
C	0.48647272	1.18035666	-0.04279866	-35.4384901889262	16.12450778508514	22.89929590475439
O	-2.0771481	-1.33122326	0.11483092	-8.15141119230544	7.512921995171392	9.366846478631336
O	0.62626434	2.29154759	-0.49089349	-4.532341418068251	37.28147853451573	-9.23867959873277
H	2.29092899	-1.61509993	-0.26460837	-11.966423269641005	-4.675832723081442	1.634534813716855
H	-0.08561223	-2.30018191	-0.58751711	2.9485665864153225	-4.464050534105845	8.076391865197861
H	-1.57072626	1.3774799	0.18894749	-25.371033511348692	2.658082678019551	-4.176479135001277
H	2.6047254	0.63311294	0.32826456	2.850848017923653	19.813588922152316	-4.656792766732135
12
Properties=species:S:1:pos:R:3:forces:R:3 energy=-260098.52825740838
C	1.70399297	0.30879817	0.17336819	-44.33369327507486	27.316101301965997	-10.72794978951491
C	1.41494914	-1.0054877	-0.03358081	-0.47814917692806613	2.274071738819142	-2.100009169314859
N	0.12120848	-1.51103646	-0.00211043	3.3904960578204864	-28.885219583260355	-42.69671937060365
C	-1.07638906	-0.7516899	0.19897567	52.062068535082766	-18.255657830486417	-29.38791422626642
N	-0.79722259	0.61060403	0.24862922	-10.399759252647568	2.4078917107799804	7.120386415656435
C	0.51984547	1.2718764	-0.00138816	3.408291179257389	-0.9974613241573512	-25.18416362728956
O	-2.12757096	-1.35500466	0.09923175	-17.355566402015114	21.655254624579655	10.262279955400105
O	0.60524124	2.40850299	-0.51015073	-9.651041748040711	-47.026034492671236	35.929515192086335
H	2.10603535	-1.81550296	-0.32722184	5.431699064380785	14.862790665232367	7.3929500866109485
H	-0.01807552	-2.16966428	-0.84412867	-1.6175763040330133	14.583584073092597	48.20629377677724
H	-1.72103402	1.05578595	0.15674818	15.754152248155057	22.34448337397018	-0.3400669625798313
H	2.65883507	0.82303254	0.0894614	3.7890790740543765	-10.279804257862255	1.525397718828331
12
Properties=species:S:1:pos:R:3:forces:R:3 energy=-260114.63557750828
C	1.66194759	0.36413037	0.06256483	6.528682775301254	-37.45015378236235	-4.895508776264909
C	1.39042796	-0.9864256	0.03883196	-14.827019829193919	3.6654295475731424	-5.290031021328273
N	0.11706387	-1.59002369	0.00093108	33.8554425504213	72.02221602069315	7.875364883232277
C	-1.04702372	-0.82856592	0.08323424	-3.061281338815234	32.383897894025544	14.59555224664903
N	-0.68904327	0.56598404	0.22539925	9.834133091894772	-11.046641067666876	-8.577544506898363
C	0.56815798	1.28268258	-0.0428625	-26.955681883357038	-12.992170817374438	-13.031466971558139
O	-2.19043028	-1.27998296	0.1135401	22.98261732025537	9.322607387220836	-5.168277475822737
O	0.53662628	2.4522226	-0.41418467	3.120975822147536	-9.22295706593898	14.304812066346853
H	2.2311885	-1.6618952	-0.04405736	0.7372706372773753	-9.427884421427043	0.8862218079997564
H	0.02172146	-2.55172245	-0.08901217	-4.512301043802093	-53.08462185982625	-3.7751125981895983
H	-1.4307668	1.23445491	0.15176515	-24.974075512850195	4.887973041690815	-0.7753566489958059
H	2.71244957	0.60648575	-0.08285437	-2.728762589359839	10.942305123415503	3.8513469948091568
12
Properties=species:S:1:pos:R:3:forces:R:3 energy=-260114.07094253253
C	1.62054232	0.30290607	-0.03324785	7.756779519678092	35.01184274733521	-8.995414949552154
C	1.37355738	-1.00328063	0.04410884	64.5754005020802	-12.86742494948415	14.538312960593286
N	0.19122176	-1.59617716	0.00744941	-64.51396436263849	-7.824889438350986	11.675835612684462
C	-0.99953886	-0.75364974	0.07954257	-12.862801086213615	-44.75045543735377	7.640827945018977
N	-0.6957587	0.56943229	0.17643564	-24.454468499781303	-4.437778094717705	-9.367010587197024
C	0.50292143	1.21697917	-0.1385162	6.799812140797201	-7.811775504986268	17.79281640597305
O	-2.15275087	-1.194957	0.10752999	27.316392199518315	3.514124440197625	0.15750238102138325
O	0.50468615	2.41829166	-0.29576607	6.239100399873859	25.41125335234841	-7.744351916106111
H	2.19245425	-1.69792715	0.23506267	4.397314476762444	-0.20348648762947394	-3.3739944191336253
H	0.16337399	-2.49444752	0.51242155	-13.522513453266622	6.351675039478119	-15.20312785079682
H	-1.54977848	1.1134817	0.1960565	-3.36556246441907	13.560205682970953	-1.8530678578758646
H	2.60618711	0.75337872	0.06047518	1.6345106274798569	-5.953291349807041	-5.268327724637401
12
Properties=species:S:1:pos:R:3:forces:R:3 energy=-260111.3748693847
C	1.62538856	0.30706665	-0.09973338	-5.649642800850479	-23.031409304587726	3.4723712902837276
C	1.44330937	-1.04883101	0.0670339	-9.408831237799339	38.40063554023982	3.2547348861318897
N	0.16428621	-1.59749401	0.02549467	13.432448602118399	52.70073927486831	-19.890368042934142
C	-0.96024196	-0.75697202	0.09475018	-37.280524264717634	-14.109831748486235	-9.665263603007384
N	-0.74808178	0.56377108	0.13336168	38.34906252141988	27.874904999436584	-13.187810756599603
C	0.45211181	1.19170652	-0.17195632	22.973705585273716	10.279761575921647	25.180707568022996
O	-2.11437299	-1.14892429	0.10364073	-10.673916570683026	-30.08760374728799	7.454050472614412
O	0.49747086	2.41601808	-0.23358602	2.229022673253905	4.3382183291934435	-9.951759017665005
H	2.22311525	-1.74262495	0.32832259	10.499187558057644	-5.8043034345131215	-1.922703711113523
H	-0.00348721	-2.35859362	0.59937687	-6.174468029231623	-59.101288570097886	24.06755631060935
H	-1.52605407	1.19327414	0.18041839	-20.816292875351575	4.458202666152579	-0.6223013792626425
H	2.57368215	0.81873906	0.05476532	2.520248838383298	-5.918025581070025	-8.189214017050094
12
Properties=species:S:1:pos:R:3:forces:R:3 energy=-260109.62907175173
C	1.62365473	0.22906196	-0.26034964	-12.330571170869021	40.4350100495006	16.135892123618376
C	1.51546611	-1.05180821	0.14384289	-37.427603572272034	-13.353900721959668	-28.63420840636828
N	0.18230873	-1.57723953	0.16053067	0.6420135910642877	-9.927232982304787	13.768999076181121
C	-0.97405656	-0.73085852	0.07898805	-38.6419073632534	-45.976678679569005	1.4884427065692718
N	-0.79320355	0.62473687	-0.05896806	-11.795201397447963	-23.306261506860295	3.880570683861846
C	0.44286659	1.22186183	-0.13810309	23.597143759557483	-26.79800426124441	-9.240428219160112
O	-2.13684016	-1.18546857	0.13111423	36.241636726323335	1.4642557760125723	0.006945836385683915
O	0.51075008	2.42624025	-0.08795792	19.07130343411962	31.040105600818997	-3.2324109962660423
H	2.37451272	-1.7416775	0.2608425	-15.20412640027187	4.821750638562195	-1.8818169924965085
H	-0.02669133	-2.62302279	0.2212224	7.454983829765143	45.44452472676989	1.9399237656303605
H	-1.69326207	1.15240947	0.00047382	24.388465756356265	-4.295528995644776	-1.3582844415311082
H	2.57073884	0.70672302	-0.48810668	4.003862806995027	0.4519603557664825	7.126374863677226
12
Properties=species:S:1:pos:R:3:forces:R:3 energy=-260101.68862994915
C	1.68822158	0.36965314	-0.24209006	-65.06730478278021	-49.168041861431725	5.550545969777037
C	1.33536369	-0.97782573	-0.09851048	40.26070112978475	11.01708876959522	24.8567603440904
N	0.08611739	-1.48519237	0.38637943	37.74182398577292	-21.80289865674542	-19.288730978052627
C	-1.0689985	-0.81727921	0.1066197	39.490113472880196	34.17138985275995	-11.26890985187607
N	-0.70768087	0.55426071	-0.26444849	-56.65366218861925	-30.389498818338964	9.630002405800271
C	0.51277606	1.24907527	-0.15237686	37.13459382702869	9.925257532826352	12.59328338750201
O	-2.14922031	-1.3653621	0.16453559	-17.662033439226487	19.19970788460337	-1.2387419640397879
O	0.64284849	2.45789552	0.02823251	-22.81799423884027	0.7325279592085325	-7.643356658760518
H	2.20123468	-1.65300358	-0.17716873	-15.667489693511776	-10.30708472798835	8.086654087814969
H	-0.151002	-2.4856783	0.60916555	24.955881333232618	21.675997486449283	-11.497382996064612
H	-1.59501338	1.04318995	-0.29290235	1.982974580277241	23.11448462891174	-2.632533687977731
H	2.69302352	0.79184625	-0.29140321	-3.6976039860883287	-8.168930049942231	-7.147590058104953
12
Properties=species:S:1:pos:R:3:forces:R:3 energy=-260102.02961412046
C	1.57274932	0.2613929	-0.2592177	34.16740866942947	-2.7973339603256746	-14.693364098637916
C	1.41918645	-1.06427013	-0.04557871	-19.86004793286807	63.925570947020184	-0.15914836539695307
N	0.17763053	-1.38516219	0.37054717	-21.575561231289203	-35.83957585563286	4.911707132746245
C	-1.0435307	-0.72548589	0.05333904	37.47898988135397	-4.781938135999963	5.177698354668374
N	-0.80681241	0.57477961	-0.36242725	8.533572908376094	-22.132707915503637	21.18136718105786
C	0.50884077	1.21051457	-0.05099195	-30.494884420903574	28.435327526097858	-35.66416019223773
O	-2.09544682	-1.32397143	0.19271449	-11.450900965423653	8.821489710729903	-3.599957321359123
O	0.6118318	2.42456374	0.07954388	-3.744325680294898	-17.104652765399443	2.773861839273832
H	2.24813117	-1.6816525	-0.27110695	9.466029916446619	-33.66676326228822	3.67097593910771
H	-0.01545489	-2.27688103	0.76410121	-4.059819462270834	-27.52346252748123	6.051666625780492
H	-1.71101584	0.99011446	-0.55398013	2.256064153144325	27.926147152044372	1.0567271587682703
H	2.49177844	0.54745047	-0.77140116	-0.716525835582634	14.737899086900129	9.29262574620288
12
Properties=species:S:1:pos:R:3:forces:R:3 energy=-260108.1937794255
C	1.61886504	0.28497164	-0.35689612	3.618483991675197	-9.365584254623867	12.053025173326933
C	1.40914389	-0.99078989	0.07251971	21.063949102695883	19.102397540666196	-12.551294632874706
N	0.1893593	-1.54202744	0.3001114	-18.14786280703116	-36.40282822345904	-10.511072838764665
C	-0.97802163	-0.76343418	0.09743414	-43.77124368276926	-13.063434621965303	-14.750492957417377
N	-0.76003393	0.5721447	-0.22721563	-0.8959757672362451	-24.92407470764584	6.01207116257427
C	0.51111663	1.2028753	-0.27591222	-32.13634765158862	12.63654594439261	42.31453729205947
O	-2.15071316	-1.17365022	0.17320506	38.189997590265484	-5.9498772488472955	8.044157749932868
O	0.50852005	2.37352703	0.08339166	21.42384070586749	18.727348869526338	-19.16062776104679
H	2.30831572	-1.5345349	0.32314469	-0.44329965471029664	-17.355577589052103	1.4162089328370058
H	0.11639598	-2.60327573	0.23479407	-6.628688034964233	41.45070195596585	8.755202339031538
H	-1.57970691	1.10459598	0.11427289	15.2040031744091	5.9939877747940455	-13.245565222704302
H	2.63498214	0.63940104	-0.24474256	2.5231430334443163	9.15039456024841	-8.376149236938101
12
Properties=species:S:1:pos:R:3:forces:R:3 energy=-260109.54931061313
C	1.68560539	0.34470037	-0.24299345	-15.697681967743568	-41.027096094981644	23.711857510988096
C	1.44506461	-0.98387458	0.10511056	-24.387920510522758	29.882744863075416	-26.612232877020038
N	0.14270018	-1.58124515	0.0809742	43.401427460481486	-47.22188827262045	41.643238266584746
C	-1.03078027	-0.83696824	0.08175278	-44.15142370254327	24.07808343117962	3.6502698219226155
N	-0.68860312	0.53849131	-0.07172889	-57.66711859085678	-13.477996325499147	-2.67599604216207
C	0.52746379	1.22086284	-0.16360806	-4.747450640054753	16.813659186003143	1.5815475016436202
O	-2.23774953	-1.19939907	0.20394095	75.8564070962049	7.01794322971991	-6.146489109392402
O	0.52352433	2.45167342	-0.08267394	7.5513530123756984	-7.40178106415466	-6.677076537518157
H	2.19372972	-1.71020937	0.36785264	12.7121448985399	-3.9830486032283616	-3.3630028658124114
H	0.1959779	-2.55241707	0.5641955	-20.61131179381396	46.056143446300204	-28.38351543209714
H	-1.56609466	1.11219459	-0.05726572	25.139153052538564	-6.09896715635655	0.16493941915498847
H	2.66609342	0.80529733	-0.31166037	2.6024216853253623	-4.637796639483606	3.106460343849056
12
Properties=species:S:1:pos:R:3:forces:R:3 energy=-260118.55750657764
C	1.63883832	0.31318295	-0.05102675	-6.6741124554606435	-21.791044487563695	3.2192238585351203
C	1.3936705	-1.03370236	0.01433848	31.49829706111244	1.0740685848259308	-9.917382225973936
N	0.1460371	-1.56976389	0.06160144	-3.5456356998741905	66.85536629341824	-12.813646067472458
C	-1.01884385	-0.75634116	0.05850979	7.464212345443494	-8.457876053357708	17.380860614069185
N	-0.78915995	0.58999479	-0.01755705	50.75672156934214	6.577764354552876	-1.390804411898495
C	0.51015013	1.22394655	-0.04554339	-5.250177832122217	36.506285978227005	-28.61452901591542
O	-2.10410818	-1.26364601	0.22028144	-27.75643748008211	-10.622082373244597	-5.066688548768122
O	0.56325553	2.45875425	-0.23049864	-1.7631878115700397	-33.87248802228768	13.336911587335445
H	2.23932437	-1.74647556	-0.10066108	-13.213464462007366	6.462857140645034	6.4169489187791156
H	-0.04851152	-2.47520039	0.35112761	-5.579511897270834	-53.848390417192654	11.558337369904507
H	-1.53342413	1.24065304	-0.1898193	-18.66124281268933	4.51790049648714	1.6244434188610803
H	2.66508792	0.63985963	-0.22975603	-7.275460524876691	6.597638505227224	4.266324502534755
12
Properties=species:S:1:pos:R:3:forces:R:3 energy=-260112.18798885585
C	1.54329111	0.26638616	0.11014323	57.402630115713315	19.018533003420547	-27.354749024128175
C	1.42682118	-1.08361372	-0.0894795	-19.466001228657056	24.713322726085586	26.605448807075962
N	0.12551327	-1.50185704	0.06236299	23.681693623793485	-36.87415843185251	-16.24952152292344
C	-1.00211327	-0.72466035	0.14089042	1.1113008774106965	-7.07772561108141	-12.281625269123692
N	-0.76983851	0.63815925	0.00437515	-32.217055892118125	-5.111010652849613	7.109096527866151
C	0.47241711	1.26306017	-0.09458478	9.364129145754815	-48.08621179032787	17.985264364504456
O	-2.06031866	-1.33113538	0.20665027	-25.767910359322517	19.045133439298638	5.456540187531288
O	0.60349075	2.4458605	-0.30404347	2.8134157494588816	24.339481086334565	-2.890590450851419
H	2.21597585	-1.86875536	-0.19971049	-13.18989154123701	19.620368232530993	4.130745833569205
H	-0.14373491	-2.46574099	-0.09965826	2.167732610768436	-6.339199076807144	1.7672692090129714
H	-1.60487986	1.21900838	0.00645752	-2.9206449280770914	3.3664485358378577	-2.5235144753569405
H	2.53185821	0.74609617	0.1115337	-2.979398173637714	-6.614981460774128	-1.754364187190198
12
Properties=species:S:1:pos:R:3:forces:R:3 energy=-260108.39484492314
C	1.62566283	0.38182953	-0.14146607	23.38936543134525	-36.27495693043495	12.961703767980364
C	1.40895393	-0.95756956	-0.06871042	2.2622776327933694	-36.798271181867705	25.87456539195419
N	0.15939105	-1.55780494	0.22571961	-5.885861768164549	-24.665739547220916	0.9565739954165144
C	-1.0679518	-0.81791384	0.152739	58.623745505392776	27.030531549958244	-5.298042748391675
N	-0.71706216	0.57927151	0.23308958	-51.710798581064815	5.714886475451382	3.278991823027007
C	0.49352842	1.23188211	-0.02441975	12.832223935778035	-44.197923797186554	-16.562566725136154
O	-2.16900979	-1.2658624	-0.03623409	-12.70102385565753	-5.270447813220047	10.240770478345164
O	0.59619975	2.38513812	-0.32615426	-19.058705352505736	73.96221398506124	0.8723012639868531
H	2.17606285	-1.7631683	-0.09389611	-2.6270459013017824	19.294466195135367	-3.7006144712659483
H	0.11288126	-2.61241453	0.47172267	-0.05915758676140224	53.90799754203877	-20.870519012920695
H	-1.50493877	1.26095626	0.1718211	8.096024055057592	-19.275933812586114	-0.5535415480476388
H	2.61639582	0.87395018	-0.19959132	-13.161043514855864	-13.426822665151763	-7.199622215019464
12
Properties=species:S:1:pos:R:3:forces:R:3 energy=-260113.24141101024
C	1.62617294	0.22642119	-0.21955875	-6.913306780882169	91.7584800261255	-13.386151859590981
C	1.41158548	-1.05592854	-0.07003627	-18.541208322674333	-25.144845106065286	15.684294759546006
N	0.17124634	-1.45322379	0.33426597	-18.113744657481508	-48.84702475060031	6.2649544774468255
C	-1.01780315	-0.75727998	0.1328562	9.300359133273679	22.32205725252257	-2.4225828032368164
N	-0.84273329	0.59664488	0.14392684	54.60867054755464	26.674076905626507	-11.97296676605806
C	0.51692464	1.24891048	-0.09479572	-21.621786268949677	-27.473123900601962	8.88846700022698
O	-2.08447071	-1.30559965	-0.02101982	-24.23206696347875	-18.660180010714523	3.529071512847437
O	0.57735481	2.46307392	-0.18378869	4.743719632581038	-13.404796646218893	-2.303553602480796
H	2.17034368	-1.79499002	-0.23845901	7.373183024535406	-13.056087125730631	2.8515193084709893
H	-0.07731775	-2.43132603	0.50539335	12.259749493974738	-0.33199833437030457	-6.980919393652568
H	-1.64636345	1.14759598	-0.13931441	-3.8068433487910416	5.390019859185629	1.4992428662541077
H	2.57877464	0.63546355	-0.52635849	4.943274510291863	0.7734218308255781	-1.6513754997984929
12
Properties=species:S:1:pos:R:3:forces:R:3 energy=-260106.93049194384
C	1.60722597	0.31208309	-0.28694457	-15.148879710563714	-89.53265674872466	6.778208082062639
C	1.40315433	-1.11003419	-0.02572054	-27.471140308790662	83.05145843863188	-5.501231486317356
N	0.13854202	-1.54898532	0.40314163	26.379896015603226	43.23141664479219	-26.412448702085797
C	-1.0039112	-0.69369146	0.1031732	-23.18267166460042	-50.426648902583025	15.345780796509036
N	-0.80681441	0.67063856	0.05551901	33.78139496822198	-38.488847974019315	-3.304711900895564
C	0.51624937	1.22934612	-0.13758024	-31.133794183753512	24.346359190390253	19.09018479143594
O	-2.05043735	-1.34122502	0.01229169	-4.158199522505919	29.74865916177814	-5.059492698778669
O	0.55906381	2.45805435	-0.10077177	13.698714620256904	-1.236035391124883	-11.715552830687608
H	2.12901256	-1.89036117	-0.12259866	16.749325118813807	-5.361333796088873	-3.1491780708687465
H	-0.11874193	-2.52942109	0.22389022	2.08274726121747	8.52987588929858	5.725910215140806
H	-1.57869002	1.29469544	-0.15412334	-6.127882164591297	-0.27692379338028583	1.8053368806413403
H	2.46805026	0.72887317	-0.78256989	14.530489570890447	-3.585322718873148	6.39719492382784
12
Properties=species:S:1:pos:R:3:forces:R:3 energy=-260103.81523697785
C	1.57074226	0.26203718	-0.34738986	-8.716026302313788	-4.229436053920626	9.252988518120048
C	1.36877026	-1.03761634	0.00355174	17.77996552810871	-14.002525504046215	-5.93998383186054
N	0.1436247	-1.57294424	0.42203582	17.786419991950407	141.72801060924414	1.682251543031114
C	-1.00431267	-0.70888541	0.10750074	7.83586961238107	-51.29422346359078	11.847741344007405
N	-0.72910108	0.68382492	-0.03405064	-72.75757567896981	-94.3938523306076	12.893905076103355
C	0.4647186	1.22850197	-0.13684567	81.28969074077516	46.39908356559633	-4.687734707783588
O	-2.05121523	-1.34435865	0.03366453	-9.032998883125511	41.69244380748572	-5.310246361895313
O	0.56473878	2.46207855	-0.04472429	8.538416638731935	-10.43289188126647	-8.743027582419717
H	2.16797603	-1.80223721	-0.0313375	-4.020879854973788	10.768269875147457	-2.8081302375653725
H	-0.03448915	-2.45014438	0.09586464	-17.92078951076522	-79.45608175324847	-18.75782151375335
H	-1.51446059	1.29983542	-0.0770922	-20.225132901910797	12.616366359636178	1.9290075192350469
H	2.51560373	0.61642112	-0.75848614	-0.5569593799898369	0.6048367696925461	8.641050234785522
12
Properties=species:S:1:pos:R:3:forces:R:3 energy=-260113.16945118806
C	1.68988379	0.29018577	-0.18102052	-50.9333416243156	-19.46782711041186	15.582189006002622
C	1.42786334	-1.0657833	0.02184299	-8.41965289280886	81.08375143788705	-12.286778531270514
N	0.11383392	-1.4816775	0.14907993	75.72761199333783	-6.920348169280511	-4.540460658986371
C	-1.00006286	-0.75566519	0.07375002	-9.872356391589772	46.987271603431495	-19.02924404718531
N	-0.78744238	0.57764466	-0.35508437	12.551593362390632	-27.553726134777946	17.67595842903735
C	0.46303881	1.19791113	-0.12522328	27.35279693275498	30.58384318884401	-12.606365450425312
O	-2.0686692	-1.24472459	0.32058313	-48.285733218401454	-10.140131183698378	5.591278936563618
O	0.51906779	2.42980094	0.02339195	1.6651895881154277	-26.939612246175045	-2.732399853582139
H	2.20995989	-1.76901848	0.12380444	14.5488253159443	-24.408959058403322	2.048133253623237
H	-0.03843439	-2.44082553	0.251156	-10.423797011615939	-45.159772858271026	9.529027270362638
H	-1.62532287	1.1443344	-0.27034182	-0.9733101092101497	9.567830057236325	1.044334645577435
H	2.66066466	0.78962856	-0.19372072	-2.9378259444376726	-7.632319526288563	-0.275672999680359
12
Properties=species:S:1:pos:R:3:forces:R:3 energy=-260106.8265059076
C	1.61799385	0.27788259	-0.10038372	8.495231222194194	40.52749753249115	-0.42975815221062336
C	1.41372342	-1.03356743	-0.00715103	-41.890091224225166	-25.80088976443744	7.023777405521182
N	0.1680353	-1.61922897	0.12639376	-16.401938684546234	103.50191352314235	1.9741323855728032
C	-0.97967626	-0.77115711	0.08877074	-28.046959745034755	-17.737674219198894	-8.807794728654898
N	-0.75754277	0.56577255	-0.38027746	18.368117518120066	-15.123314503077092	30.88262989213312
C	0.49831623	1.2799618	-0.17266134	8.49276605459083	-35.614601682240334	8.535183769224261
O	-2.10680681	-1.21897635	0.35954274	35.10160176891634	19.03774509283002	-8.60589291398576
O	0.50273927	2.49007319	0.00083809	5.8332575702353076	-13.671519760411865	-7.493175222191349
H	2.13271409	-1.77911703	0.1702943	38.91128421820238	-13.771459798740603	-1.2941049080379865
H	-0.04562692	-2.51542183	-0.14595476	-6.801955688466358	-68.43782610538398	-10.399350029533798
H	-1.47946871	1.14917442	0.00996949	-22.3106418332496	11.386471886041024	-6.1858744839780115
H	2.65695375	0.55009192	0.05243012	0.24932882300472667	15.703657799262393	-5.199773013828966
12
Properties=species:S:1:pos:R:3:forces:R:3 energy=-260110.0008507144
C	1.59859028	0.33198629	0.08319437	-5.812814831649158	14.007501019136784	-9.740511352198094
C	1.42124379	-0.99948631	-0.00341511	-13.982330628640446	-39.45167437539843	-8.804920781180748
N	0.164004	-1.68058405	-0.0597166	7.892761507454581	93.24731760116728	-1.3204056933259551
C	-0.98304832	-0.85170026	0.02048242	-30.006235844461816	11.986871013937327	37.63594735294946
N	-0.70836443	0.52036172	-0.19935236	2.6319835075521705	-12.512997744973974	-14.234388277205177
C	0.476409	1.26223147	-0.10750785	4.061244410992389	-16.024615439688002	12.587753969699483
O	-2.13854107	-1.11828212	0.41487561	42.803670546325456	-19.636549293034957	-29.999590881697657
O	0.5162583	2.48817419	-0.1467736	-1.2220573123112515	-7.624153784728116	-5.259986461528964
H	2.25053878	-1.69501543	-0.12345703	3.8652710066997558	1.2329044708388275	7.386920762759224
H	0.08616388	-2.6590995	-0.05101185	-3.1293493765718368	-36.848175129912406	4.679868235627983
H	-1.5383089	0.99395983	-0.49916171	-16.82348503005341	16.023908845520463	5.5707534404461905
H	2.57076736	0.80054496	0.10250631	9.72134204460361	-4.400337182657244	1.498559685790311
12
Properties=species:S:1:pos:R:3:forces:R:3 energy=-260104.70390215563
C	1.5594681	0.33604292	0.06682699	31.76831196965712	-1.8210478443665439	5.512636598259563
C	1.36129731	-1.00368785	0.07476584	34.13172980475433	-2.781489102821473	4.039902257300407
N	0.13056208	-1.49361535	-0.09957023	-23.78231437392943	-74.20737472187167	-20.089882570359407
C	-1.05009543	-0.81612479	0.08525455	63.16887761911574	44.32414901198797	6.744460050369496
N	-0.80321645	0.57704273	0.15254466	-10.743494957454692	1.3408733465748253	-12.649814693762961
C	0.51389211	1.3016185	-0.11677468	-20.858505739430655	-9.177249695570698	0.2202688125171445
O	-2.08976194	-1.38275628	0.25183183	-50.26529729582305	-10.783871812295878	-3.4889799448139893
O	0.70463332	2.4856906	-0.38741107	-27.330247871070096	-22.476895090470002	9.489179593894672
H	2.14295369	-1.78630647	0.29577369	-11.4793061343865	22.99814763384764	-13.491444450332356
H	-0.0343956	-2.46170702	-0.46131082	9.43164018725351	17.936986951197213	20.119046309143478
H	-1.76215629	0.92574725	0.12730535	6.646830562672377	33.288746436402434	0.9531699293225764
H	2.57394172	0.72279638	0.14063778	-0.6882237715016211	1.3590248874991722	2.641458108457918
12
Properties=species:S:1:pos:R:3:forces:R:3 energy=-260106.5331067685
C	1.68384473	0.28113301	-0.1977841	1.335091865792549	23.511777114558537	23.836211493919368
C	1.45054108	-1.00916588	0.01870206	-34.241570383988446	-46.809149547381914	-3.573392671200914
N	0.16056439	-1.59247489	0.27402742	9.537200829081952	14.010584161527685	-36.359706205127324
C	-0.98182271	-0.74162168	0.14661125	-46.556474073207056	-13.625136949071393	-7.17804996621596
N	-0.70188868	0.63051031	0.18325424	-32.09587638935795	-62.78952305563896	12.628403207998748
C	0.51978633	1.20163863	-0.05999496	2.6912884289098096	4.609615359999857	-18.866436287083854
O	-2.13928994	-1.19335673	-0.01151019	47.877126221837514	15.795832353626277	8.050913443401397
O	0.3911483	2.38737081	-0.27572713	42.39885636692905	49.262201388137825	-7.253177539551914
H	2.17038616	-1.81173515	-0.10230949	11.944451108040257	3.2275862603284713	2.637362029954473
H	0.02633464	-2.42116516	-0.3609998	-1.9525209927383633	12.043995203895271	27.508351479300885
H	-1.50820645	1.26367136	0.02776138	12.170653830710926	-10.257156247928233	4.740749064131338
H	2.73975837	0.57797094	-0.25965646	-13.108226811834994	11.019373958108002	-6.171228049341752
12
Properties=species:S:1:pos:R:3:forces:R:3 energy=-260105.23570841717
C	1.51915177	0.30213384	-0.2398045	30.541768044910906	25.3536715391764	-25.0532923810495
C	1.3907511	-0.98852232	-0.0259262	-29.00366710975259	-63.08848067578537	38.97549782944595
N	0.14735035	-1.54443017	0.31592309	19.410521211398937	-58.673056764392896	12.254078483478596
C	-1.00963236	-0.85945537	0.07995986	53.92893687045743	69.4485249306754	27.498257623504518
N	-0.739833	0.59027994	0.2246427	-38.27073775969439	-2.3045140462725153	-17.400053626273728
C	0.44720195	1.26938049	-0.14280821	16.417012457146665	31.60558979151861	13.806695789486241
O	-2.09518679	-1.30547229	-0.04815915	-60.94249186818573	-24.269605560980523	-5.016669962604175
O	0.65728025	2.51220715	-0.21359034	-29.405588223191888	-51.62630491974443	1.3282537363255091
H	2.16456232	-1.75466042	0.08494846	7.060733207099125	11.39769928623238	-9.113329255998922
H	0.06633442	-2.53933187	0.73546348	3.3153349394927405	46.77177825156638	-31.04888470465883
H	-1.65070319	1.09168332	0.28329434	19.655130066644848	0.13306538614760746	-5.663472800605983
H	2.50578104	0.60119878	-0.54728832	7.2930481638353735	15.251632781552718	-0.5670807310589038
12
Properties=species:S:1:pos:R:3:forces:R:3 energy=-260103.22046212465
C	1.53474984	0.2847124	-0.31362477	24.807578811089204	32.515745378044926	4.026958346489558
C	1.41305995	-0.99811564	-0.00249051	-28.963451287941268	-27.65743804319775	10.619873488524362
N	0.16625186	-1.50922852	0.30639063	2.7129726767599873	91.1638201990693	-56.74072664658307
C	-1.04913932	-0.71755465	0.04927543	41.333890868931185	-27.560457329184295	38.953099485827195
N	-0.84862788	0.66819694	0.12421926	18.29533204873121	-36.85674103205356	-9.3184925684703
C	0.46383	1.19469868	-0.08323618	-6.946616220583831	64.20395875180066	-14.62999141681745
O	-2.0472493	-1.39342333	0.00514686	-36.759827664178054	17.39843321055402	-6.162829095210246
O	0.68384724	2.42447351	-0.1559771	-22.149515855941317	-24.31692545567838	10.16702629275377
H	2.2012228	-1.69629861	-0.09074911	23.94078601093567	-19.61631527752774	5.105501462018001
H	-0.04401276	-2.25803208	0.87006037	-4.614934598762138	-60.85532460441437	29.428762563499788
H	-1.66255735	1.25036744	0.27791278	-2.6187629979435045	9.593050281010651	-6.165484631791011
H	2.47880092	0.84054647	-0.4773209	-9.037451791304681	-18.011806078423465	-5.283697280309777
12
Properties=species:S:1:pos:R:3:forces:R:3 energy=-260108.87427651777
C	1.63887125	0.3711176	-0.27829891	4.010940644351976	-75.09813631030008	20.366939490969596
C	1.39792676	-1.01958715	-0.01665758	26.142548934560477	23.103979872730104	-11.26500046104187
N	0.14960692	-1.60789946	0.32036163	29.62498775252368	34.9908598182516	-39.14693946605962
C	-1.01929959	-0.77606605	0.04990861	-19.23668267197501	-52.55349729568476	37.36459772195454
N	-0.71258736	0.52081378	-0.11971316	-8.692735721953312	40.13358491425331	-7.406522366938819
C	0.56135147	1.2629301	-0.17114854	-49.83050281452322	-34.377451531621624	13.79199887814211
O	-2.16685128	-1.23081415	0.18088487	27.592635990164872	8.497994478443301	-12.39169075537485
O	0.50722146	2.4537248	-0.02940479	7.192642301501722	40.16642806636784	-4.876509352331805
H	2.3174884	-1.68142326	-0.10813226	-30.791726675711296	10.122891089442218	10.160700844559976
H	0.03674584	-2.63119972	0.20554915	-0.7556313874989061	17.161521339148972	3.1236779232477954
H	-1.5483006	1.12315893	-0.05522475	9.788947796942944	-3.092694503291133	-3.2121039258006263
H	2.63244886	0.81025286	-0.27744765	4.954575851627604	-9.055479937716697	-6.509148531257242
12
Properties=species:S:1:pos:R:3:forces:R:3 energy=-260104.23371545534
C	1.53989041	0.23415228	-0.43431241	-9.20067833863865	16.938993658581058	22.810086751476977
C	1.37553378	-1.05728995	-0.04893644	-5.793575484398663	-10.259909564935885	24.296235809740296
N	0.16678292	-1.49068507	0.43499052	-1.9683170483225882	74.76848985853528	-8.038169574785199
C	-1.023325	-0.76417468	0.17383947	45.441245140060154	11.050822190804052	-11.345749593659857
N	-0.78380816	0.61005135	0.06172167	2.3161463585558986	-9.793705410566321	1.4301068426413408
C	0.52352807	1.26038061	-0.06648139	-8.428561299213472	20.339815662098896	-33.40501954161384
O	-2.06352752	-1.32696297	-0.05127315	-32.79922825485399	-7.38604564131703	4.429289600475597
O	0.59473648	2.51425112	-0.06081879	2.750004477203468	-65.17682200194612	1.2692652222644651
H	2.14502213	-1.83214976	0.12910905	0.6387966820353244	12.852604011460473	-19.39164506004887
H	0.02344802	-2.41400837	0.6346235	-9.502904135003028	-73.50074159617628	13.818093798702286
H	-1.51243694	1.00684489	-0.52221589	-8.065284318523691	17.074998093717323	7.748757553865412
H	2.44909663	0.52666114	-0.8874915	24.61235622082252	13.091500739675377	-3.6212518090770502
12